MODEL 1
REMARK minimizedAffinity -1.4279089
REMARK minimizedRMSD -1
REMARK  Name = 
REMARK  15 active torsions:
REMARK  status: ('A' for Active; 'I' for Inactive)
REMARK    1  A    between atoms: C_1  and  O_2
REMARK    2  A    between atoms: O_2  and  C_3
REMARK    3  A    between atoms: C_6  and  C_7
REMARK    4  A    between atoms: C_9  and  O_10
REMARK    5  A    between atoms: O_10  and  C_11
REMARK    6  A    between atoms: C_12  and  O_13
REMARK    7  A    between atoms: C_14  and  C_15
REMARK    8  A    between atoms: C_17  and  C_18
REMARK    9  A    between atoms: C_19  and  O_20
REMARK   10  A    between atoms: O_20  and  C_21
REMARK   11  A    between atoms: C_21  and  O_23
REMARK   12  A    between atoms: C_24  and  O_25
REMARK   13  A    between atoms: O_25  and  C_26
REMARK   14  A    between atoms: C_30  and  C_31
REMARK   15  A    between atoms: C_32  and  O_33
REMARK                            x       y       z     vdW  Elec       q    Type
REMARK                         _______ _______ _______ _____ _____    ______ ____
ROOT
ATOM      1  C   UNL     1     -25.163  40.991 -12.180  0.00  0.00    +0.173 C 
ATOM      2  C   UNL     1     -25.599  39.772 -11.818  0.00  0.00    +0.047 C 
ATOM      3  C   UNL     1     -26.107  38.740 -12.802  0.00  0.00    +0.046 C 
ATOM      4  C   UNL     1     -27.615  38.400 -12.668  0.00  0.00    -0.007 C 
ATOM      5  C   UNL     1     -28.485  39.650 -12.829  0.00  0.00    +0.008 C 
ATOM      6  C   UNL     1     -27.959  37.298 -13.701  0.00  0.00    +0.037 C 
ATOM      7  C   UNL     1     -29.349  36.623 -13.595  0.00  0.00    +0.147 C 
ATOM      8  C   UNL     1     -29.564  35.924 -12.225  0.00  0.00    +0.150 C 
ATOM      9  C   UNL     1     -30.971  35.284 -12.060  0.00  0.00    +0.040 C 
ATOM     10  C   UNL     1     -31.303  34.285 -13.181  0.00  0.00    +0.014 C 
ATOM     11  C   UNL     1     -31.101  34.561 -10.726  0.00  0.00    -0.019 C 
ATOM     12  C   UNL     1     -31.478  35.015  -9.508  0.00  0.00    -0.033 C 
ATOM     13  C   UNL     1     -31.622  33.993  -8.397  0.00  0.00    +0.042 C 
ATOM     14  C   UNL     1     -31.846  36.449  -9.083  0.00  0.00    +0.236 C 
ATOM     15  C   UNL     1     -31.021  37.045  -7.886  0.00  0.00    +0.186 C 
ATOM     16  C   UNL     1     -29.524  36.872  -8.025  0.00  0.00    +0.008 C 
ATOM     17  C   UNL     1     -28.589  37.823  -8.181  0.00  0.00    -0.001 C 
ATOM     18  C   UNL     1     -28.835  39.239  -8.351  0.00  0.00    +0.008 C 
ATOM     19  C   UNL     1     -27.957  40.235  -8.129  0.00  0.00    +0.011 C 
ATOM     20  C   UNL     1     -28.301  41.676  -8.341  0.00  0.00    +0.049 C 
ATOM     21  C   UNL     1     -26.613  39.981  -7.556  0.00  0.00    +0.216 C 
ATOM     22  N   UNL     1     -25.420  40.073  -8.020  0.00  0.00    -0.209 NA
ATOM     23  C   UNL     1     -25.296  40.391  -9.352  0.00  0.00    +0.118 C 
ATOM     24  C   UNL     1     -24.854  41.592  -9.732  0.00  0.00    +0.086 C 
ATOM     25  C   UNL     1     -24.710  41.972 -11.143  0.00  0.00    +0.223 C 
ATOM     26  O   UNL     1     -24.260  43.078 -11.415  0.00  0.00    -0.284 OA
ATOM     27  C   UNL     1     -25.570  39.345 -10.390  0.00  0.00    +0.211 C 
ATOM     28  O   UNL     1     -25.769  38.175 -10.075  0.00  0.00    -0.285 OA
ENDROOT
BRANCH   7  29
ATOM     29  O   UNL     1     -30.418  37.539 -13.840  0.00  0.00    -0.377 OA
ATOM     30  C   UNL     1     -31.704  36.936 -13.841  0.00  0.00    +0.194 C 
ENDBRANCH   7  29
BRANCH   8  31
ATOM     31  O   UNL     1     -28.542  34.928 -12.060  0.00  0.00    -0.389 OA
ATOM     32  H   UNL     1     -28.533  34.709 -11.111  0.00  0.00    +0.210 HD
ENDBRANCH   8  31
BRANCH  21  33
ATOM     33  O   UNL     1     -26.732  39.642  -6.260  0.00  0.00    -0.492 OA
ATOM     34  H   UNL     1     -25.837  39.465  -5.929  0.00  0.00    +0.294 HD
ENDBRANCH  21  33
BRANCH   1  36
ATOM     35  C   UNL     1     -26.132  42.399 -13.823  0.00  0.00    +0.277 C 
ATOM     36  O   UNL     1     -25.208  41.357 -13.521  0.00  0.00    -0.491 OA
ENDBRANCH   1  36
BRANCH  15  37
ATOM     37  O   UNL     1     -31.456  36.415  -6.666  0.00  0.00    -0.372 OA
ATOM     38  C   UNL     1     -31.277  37.240  -5.518  0.00  0.00    +0.195 C 
ENDBRANCH  15  37
BRANCH  14  39
ATOM     39  O   UNL     1     -31.744  37.361 -10.195  0.00  0.00    -0.439 OA
BRANCH  39  40
ATOM     40  C   UNL     1     -31.732  38.687 -10.000  0.00  0.00    +0.381 C 
ATOM     41  N   UNL     1     -31.846  39.357  -8.918  0.00  0.00    -0.233 NA
ATOM     42  H   UNL     1     -31.999  38.752  -8.113  0.00  0.00    +0.193 HD
BRANCH  40  43
ATOM     43  O   UNL     1     -31.551  39.348 -11.141  0.00  0.00    -0.466 OA
ATOM     44  H   UNL     1     -31.587  40.292 -10.924  0.00  0.00    +0.297 HD
ENDBRANCH  40  43
ENDBRANCH  39  40
ENDBRANCH  14  39
TORSDOF 8
ENDMDL
MODEL 2
REMARK minimizedAffinity 0.947037816
REMARK minimizedRMSD -1
REMARK  Name = 
REMARK  15 active torsions:
REMARK  status: ('A' for Active; 'I' for Inactive)
REMARK    1  A    between atoms: C_1  and  O_2
REMARK    2  A    between atoms: O_2  and  C_3
REMARK    3  A    between atoms: C_6  and  C_7
REMARK    4  A    between atoms: C_9  and  O_10
REMARK    5  A    between atoms: O_10  and  C_11
REMARK    6  A    between atoms: C_12  and  O_13
REMARK    7  A    between atoms: C_14  and  C_15
REMARK    8  A    between atoms: C_17  and  C_18
REMARK    9  A    between atoms: C_19  and  O_20
REMARK   10  A    between atoms: O_20  and  C_21
REMARK   11  A    between atoms: C_21  and  O_23
REMARK   12  A    between atoms: C_24  and  O_25
REMARK   13  A    between atoms: O_25  and  C_26
REMARK   14  A    between atoms: C_30  and  C_31
REMARK   15  A    between atoms: C_32  and  O_33
REMARK                            x       y       z     vdW  Elec       q    Type
REMARK                         _______ _______ _______ _____ _____    ______ ____
ROOT
ATOM      1  C   UNL     1     -26.830  40.713 -12.096  0.00  0.00    +0.173 C 
ATOM      2  C   UNL     1     -26.789  39.433 -11.686  0.00  0.00    +0.047 C 
ATOM      3  C   UNL     1     -26.937  38.251 -12.620  0.00  0.00    +0.046 C 
ATOM      4  C   UNL     1     -28.219  37.404 -12.399  0.00  0.00    -0.007 C 
ATOM      5  C   UNL     1     -29.483  38.257 -12.539  0.00  0.00    +0.008 C 
ATOM      6  C   UNL     1     -28.192  36.213 -13.390  0.00  0.00    +0.037 C 
ATOM      7  C   UNL     1     -29.245  35.094 -13.196  0.00  0.00    +0.147 C 
ATOM      8  C   UNL     1     -29.139  34.417 -11.802  0.00  0.00    +0.150 C 
ATOM      9  C   UNL     1     -30.218  33.327 -11.549  0.00  0.00    +0.040 C 
ATOM     10  C   UNL     1     -30.220  32.234 -12.630  0.00  0.00    +0.014 C 
ATOM     11  C   UNL     1     -30.025  32.657 -10.195  0.00  0.00    -0.019 C 
ATOM     12  C   UNL     1     -30.486  32.993  -8.969  0.00  0.00    -0.033 C 
ATOM     13  C   UNL     1     -30.210  32.030  -7.830  0.00  0.00    +0.042 C 
ATOM     14  C   UNL     1     -31.322  34.220  -8.554  0.00  0.00    +0.236 C 
ATOM     15  C   UNL     1     -30.713  35.114  -7.415  0.00  0.00    +0.186 C 
ATOM     16  C   UNL     1     -29.260  35.477  -7.631  0.00  0.00    +0.008 C 
ATOM     17  C   UNL     1     -28.731  36.691  -7.856  0.00  0.00    -0.001 C 
ATOM     18  C   UNL     1     -29.472  37.921  -8.041  0.00  0.00    +0.008 C 
ATOM     19  C   UNL     1     -28.997  39.171  -7.886  0.00  0.00    +0.011 C 
ATOM     20  C   UNL     1     -29.840  40.388  -8.110  0.00  0.00    +0.049 C 
ATOM     21  C   UNL     1     -27.627  39.431  -7.381  0.00  0.00    +0.216 C 
ATOM     22  N   UNL     1     -26.566  39.923  -7.910  0.00  0.00    -0.209 NA
ATOM     23  C   UNL     1     -26.620  40.212  -9.253  0.00  0.00    +0.118 C 
ATOM     24  C   UNL     1     -26.650  41.477  -9.681  0.00  0.00    +0.086 C 
ATOM     25  C   UNL     1     -26.712  41.829 -11.105  0.00  0.00    +0.223 C 
ATOM     26  O   UNL     1     -26.697  43.012 -11.423  0.00  0.00    -0.284 OA
ATOM     27  C   UNL     1     -26.548  39.099 -10.253  0.00  0.00    +0.211 C 
ATOM     28  O   UNL     1     -26.304  37.947  -9.905  0.00  0.00    -0.285 OA
ENDROOT
BRANCH   7  29
ATOM     29  O   UNL     1     -30.580  35.562 -13.402  0.00  0.00    -0.377 OA
ATOM     30  C   UNL     1     -31.491  34.547 -13.798  0.00  0.00    +0.194 C 
ENDBRANCH   7  29
BRANCH   8  31
ATOM     31  O   UNL     1     -27.824  33.855 -11.671  0.00  0.00    -0.389 OA
ATOM     32  H   UNL     1     -27.697  33.690 -10.719  0.00  0.00    +0.210 HD
ENDBRANCH   8  31
BRANCH  21  33
ATOM     33  O   UNL     1     -27.562  39.122  -6.074  0.00  0.00    -0.492 OA
ATOM     34  H   UNL     1     -26.650  39.286  -5.788  0.00  0.00    +0.294 HD
ENDBRANCH  21  33
BRANCH   1  36
ATOM     35  C   UNL     1     -28.331  41.566 -13.721  0.00  0.00    +0.277 C 
ATOM     36  O   UNL     1     -27.059  40.987 -13.440  0.00  0.00    -0.491 OA
ENDBRANCH   1  36
BRANCH  15  37
ATOM     37  O   UNL     1     -30.843  34.418  -6.161  0.00  0.00    -0.372 OA
ATOM     38  C   UNL     1     -31.832  34.986  -5.308  0.00  0.00    +0.195 C 
ENDBRANCH  15  37
BRANCH  14  39
ATOM     39  O   UNL     1     -31.599  35.065  -9.688  0.00  0.00    -0.439 OA
BRANCH  39  40
ATOM     40  C   UNL     1     -31.527  36.399  -9.587  0.00  0.00    +0.381 C 
ATOM     41  N   UNL     1     -31.768  37.160  -8.589  0.00  0.00    -0.233 NA
ATOM     42  H   UNL     1     -32.091  36.631  -7.780  0.00  0.00    +0.193 HD
BRANCH  40  43
ATOM     43  O   UNL     1     -31.118  36.956 -10.725  0.00  0.00    -0.466 OA
ATOM     44  H   UNL     1     -31.124  37.915 -10.584  0.00  0.00    +0.297 HD
ENDBRANCH  40  43
ENDBRANCH  39  40
ENDBRANCH  14  39
TORSDOF 8
ENDMDL
