MODEL 1
REMARK minimizedAffinity -2.41084623
REMARK minimizedRMSD -1
REMARK  Name = 
REMARK  15 active torsions:
REMARK  status: ('A' for Active; 'I' for Inactive)
REMARK    1  A    between atoms: C_1  and  O_2
REMARK    2  A    between atoms: O_2  and  C_3
REMARK    3  A    between atoms: C_6  and  C_7
REMARK    4  A    between atoms: C_9  and  O_10
REMARK    5  A    between atoms: O_10  and  C_11
REMARK    6  A    between atoms: C_12  and  O_13
REMARK    7  A    between atoms: C_14  and  C_15
REMARK    8  A    between atoms: C_17  and  C_18
REMARK    9  A    between atoms: C_19  and  O_20
REMARK   10  A    between atoms: O_20  and  C_21
REMARK   11  A    between atoms: C_21  and  O_23
REMARK   12  A    between atoms: C_24  and  O_25
REMARK   13  A    between atoms: O_25  and  C_26
REMARK   14  A    between atoms: C_30  and  C_31
REMARK   15  A    between atoms: C_32  and  O_33
REMARK                            x       y       z     vdW  Elec       q    Type
REMARK                         _______ _______ _______ _____ _____    ______ ____
ROOT
ATOM      1  C   UNL     1      28.331 -41.785  -7.584  0.00  0.00    +0.173 C 
ATOM      2  C   UNL     1      27.842 -40.563  -7.860  0.00  0.00    +0.047 C 
ATOM      3  C   UNL     1      26.831 -40.295  -8.953  0.00  0.00    +0.046 C 
ATOM      4  C   UNL     1      27.358 -39.432 -10.131  0.00  0.00    -0.007 C 
ATOM      5  C   UNL     1      28.581 -40.076 -10.790  0.00  0.00    +0.008 C 
ATOM      6  C   UNL     1      26.194 -39.205 -11.128  0.00  0.00    +0.037 C 
ATOM      7  C   UNL     1      26.411 -38.174 -12.262  0.00  0.00    +0.147 C 
ATOM      8  C   UNL     1      26.712 -36.751 -11.718  0.00  0.00    +0.150 C 
ATOM      9  C   UNL     1      26.993 -35.699 -12.828  0.00  0.00    +0.040 C 
ATOM     10  C   UNL     1      25.852 -35.604 -13.855  0.00  0.00    +0.014 C 
ATOM     11  C   UNL     1      27.218 -34.313 -12.238  0.00  0.00    -0.019 C 
ATOM     12  C   UNL     1      28.346 -33.718 -11.786  0.00  0.00    -0.033 C 
ATOM     13  C   UNL     1      28.249 -32.263 -11.370  0.00  0.00    +0.042 C 
ATOM     14  C   UNL     1      29.769 -34.300 -11.681  0.00  0.00    +0.236 C 
ATOM     15  C   UNL     1      30.429 -34.249 -10.255  0.00  0.00    +0.186 C 
ATOM     16  C   UNL     1      29.534 -34.759  -9.146  0.00  0.00    +0.008 C 
ATOM     17  C   UNL     1      29.702 -35.848  -8.378  0.00  0.00    -0.001 C 
ATOM     18  C   UNL     1      30.750 -36.836  -8.520  0.00  0.00    +0.008 C 
ATOM     19  C   UNL     1      31.171 -37.696  -7.573  0.00  0.00    +0.011 C 
ATOM     20  C   UNL     1      32.260 -38.694  -7.817  0.00  0.00    +0.049 C 
ATOM     21  C   UNL     1      30.656 -37.645  -6.184  0.00  0.00    +0.216 C 
ATOM     22  N   UNL     1      29.927 -38.433  -5.480  0.00  0.00    -0.209 NA
ATOM     23  C   UNL     1      29.413 -39.538  -6.118  0.00  0.00    +0.118 C 
ATOM     24  C   UNL     1      29.876 -40.761  -5.849  0.00  0.00    +0.086 C 
ATOM     25  C   UNL     1      29.358 -41.965  -6.510  0.00  0.00    +0.223 C 
ATOM     26  O   UNL     1      29.805 -43.058  -6.184  0.00  0.00    -0.284 OA
ATOM     27  C   UNL     1      28.255 -39.378  -7.055  0.00  0.00    +0.211 C 
ATOM     28  O   UNL     1      27.667 -38.305  -7.161  0.00  0.00    -0.285 OA
ENDROOT
BRANCH   7  29
ATOM     29  O   UNL     1      27.444 -38.570 -13.167  0.00  0.00    -0.377 OA
ATOM     30  C   UNL     1      26.997 -39.421 -14.213  0.00  0.00    +0.194 C 
ENDBRANCH   7  29
BRANCH   8  31
ATOM     31  O   UNL     1      25.604 -36.333 -10.906  0.00  0.00    -0.389 OA
ATOM     32  H   UNL     1      25.929 -35.586 -10.372  0.00  0.00    +0.210 HD
ENDBRANCH   8  31
BRANCH  21  33
ATOM     33  O   UNL     1      31.133 -36.550  -5.566  0.00  0.00    -0.492 OA
ATOM     34  H   UNL     1      30.758 -36.543  -4.670  0.00  0.00    +0.294 HD
ENDBRANCH  21  33
BRANCH   1  36
ATOM     35  C   UNL     1      28.936 -43.401  -9.211  0.00  0.00    +0.277 C 
ATOM     36  O   UNL     1      27.926 -42.867  -8.358  0.00  0.00    -0.491 OA
ENDBRANCH   1  36
BRANCH  15  37
ATOM     37  O   UNL     1      30.805 -32.889  -9.968  0.00  0.00    -0.372 OA
ATOM     38  C   UNL     1      32.145 -32.589 -10.346  0.00  0.00    +0.195 C 
ENDBRANCH  15  37
BRANCH  14  39
ATOM     39  O   UNL     1      29.807 -35.664 -12.144  0.00  0.00    -0.439 OA
BRANCH  39  40
ATOM     40  C   UNL     1      30.972 -36.265 -12.424  0.00  0.00    +0.381 C 
ATOM     41  N   UNL     1      32.008 -35.808 -13.016  0.00  0.00    -0.233 NA
ATOM     42  H   UNL     1      31.871 -34.849 -13.333  0.00  0.00    +0.193 HD
BRANCH  40  43
ATOM     43  O   UNL     1      30.998 -37.517 -11.976  0.00  0.00    -0.466 OA
ATOM     44  H   UNL     1      31.851 -37.892 -12.243  0.00  0.00    +0.297 HD
ENDBRANCH  40  43
ENDBRANCH  39  40
ENDBRANCH  14  39
TORSDOF 8
ENDMDL
MODEL 2
REMARK minimizedAffinity -1.86961484
REMARK minimizedRMSD -1
REMARK  Name = 
REMARK  15 active torsions:
REMARK  status: ('A' for Active; 'I' for Inactive)
REMARK    1  A    between atoms: C_1  and  O_2
REMARK    2  A    between atoms: O_2  and  C_3
REMARK    3  A    between atoms: C_6  and  C_7
REMARK    4  A    between atoms: C_9  and  O_10
REMARK    5  A    between atoms: O_10  and  C_11
REMARK    6  A    between atoms: C_12  and  O_13
REMARK    7  A    between atoms: C_14  and  C_15
REMARK    8  A    between atoms: C_17  and  C_18
REMARK    9  A    between atoms: C_19  and  O_20
REMARK   10  A    between atoms: O_20  and  C_21
REMARK   11  A    between atoms: C_21  and  O_23
REMARK   12  A    between atoms: C_24  and  O_25
REMARK   13  A    between atoms: O_25  and  C_26
REMARK   14  A    between atoms: C_30  and  C_31
REMARK   15  A    between atoms: C_32  and  O_33
REMARK                            x       y       z     vdW  Elec       q    Type
REMARK                         _______ _______ _______ _____ _____    ______ ____
ROOT
ATOM      1  C   UNL     1      29.419 -33.935 -10.633  0.00  0.00    +0.173 C 
ATOM      2  C   UNL     1      28.715 -34.903 -10.019  0.00  0.00    +0.047 C 
ATOM      3  C   UNL     1      29.113 -35.512  -8.692  0.00  0.00    +0.046 C 
ATOM      4  C   UNL     1      29.518 -37.009  -8.759  0.00  0.00    -0.007 C 
ATOM      5  C   UNL     1      30.682 -37.229  -9.730  0.00  0.00    +0.008 C 
ATOM      6  C   UNL     1      29.842 -37.491  -7.322  0.00  0.00    +0.037 C 
ATOM      7  C   UNL     1      30.038 -39.011  -7.102  0.00  0.00    +0.147 C 
ATOM      8  C   UNL     1      28.779 -39.832  -7.491  0.00  0.00    +0.150 C 
ATOM      9  C   UNL     1      28.958 -41.369  -7.338  0.00  0.00    +0.040 C 
ATOM     10  C   UNL     1      29.394 -41.775  -5.920  0.00  0.00    +0.014 C 
ATOM     11  C   UNL     1      27.674 -42.116  -7.672  0.00  0.00    -0.019 C 
ATOM     12  C   UNL     1      27.202 -42.576  -8.854  0.00  0.00    -0.033 C 
ATOM     13  C   UNL     1      25.928 -43.398  -8.823  0.00  0.00    +0.042 C 
ATOM     14  C   UNL     1      27.813 -42.430 -10.261  0.00  0.00    +0.236 C 
ATOM     15  C   UNL     1      26.888 -41.772 -11.347  0.00  0.00    +0.186 C 
ATOM     16  C   UNL     1      26.223 -40.491 -10.893  0.00  0.00    +0.008 C 
ATOM     17  C   UNL     1      26.413 -39.246 -11.360  0.00  0.00    -0.001 C 
ATOM     18  C   UNL     1      27.389 -38.849 -12.353  0.00  0.00    +0.008 C 
ATOM     19  C   UNL     1      27.354 -37.732 -13.105  0.00  0.00    +0.011 C 
ATOM     20  C   UNL     1      28.419 -37.400 -14.104  0.00  0.00    +0.049 C 
ATOM     21  C   UNL     1      26.202 -36.801 -13.072  0.00  0.00    +0.216 C 
ATOM     22  N   UNL     1      26.048 -35.596 -12.656  0.00  0.00    -0.209 NA
ATOM     23  C   UNL     1      27.121 -35.018 -12.019  0.00  0.00    +0.118 C 
ATOM     24  C   UNL     1      27.825 -34.049 -12.607  0.00  0.00    +0.086 C 
ATOM     25  C   UNL     1      28.979 -33.408 -11.964  0.00  0.00    +0.223 C 
ATOM     26  O   UNL     1      29.553 -32.497 -12.549  0.00  0.00    -0.284 OA
ATOM     27  C   UNL     1      27.446 -35.414 -10.611  0.00  0.00    +0.211 C 
ATOM     28  O   UNL     1      26.695 -36.141  -9.966  0.00  0.00    -0.285 OA
ENDROOT
BRANCH   7  29
ATOM     29  O   UNL     1      31.177 -39.519  -7.800  0.00  0.00    -0.377 OA
ATOM     30  C   UNL     1      32.367 -39.535  -7.024  0.00  0.00    +0.194 C 
ENDBRANCH   7  29
BRANCH   8  31
ATOM     31  O   UNL     1      27.677 -39.377  -6.690  0.00  0.00    -0.389 OA
ATOM     32  H   UNL     1      26.872 -39.700  -7.134  0.00  0.00    +0.210 HD
ENDBRANCH   8  31
BRANCH  21  33
ATOM     33  O   UNL     1      25.141 -37.373 -13.668  0.00  0.00    -0.492 OA
ATOM     34  H   UNL     1      24.406 -36.743 -13.607  0.00  0.00    +0.294 HD
ENDBRANCH  21  33
BRANCH   1  36
ATOM     35  C   UNL     1      30.498 -32.219  -9.404  0.00  0.00    +0.277 C 
ATOM     36  O   UNL     1      30.599 -33.484 -10.053  0.00  0.00    -0.491 OA
ENDBRANCH   1  36
BRANCH  15  37
ATOM     37  O   UNL     1      25.872 -42.721 -11.726  0.00  0.00    -0.372 OA
ATOM     38  C   UNL     1      25.480 -42.602 -13.091  0.00  0.00    +0.195 C 
ENDBRANCH  15  37
BRANCH  14  39
ATOM     39  O   UNL     1      29.048 -41.689 -10.215  0.00  0.00    -0.439 OA
BRANCH  39  40
ATOM     40  C   UNL     1      29.889 -41.686 -11.258  0.00  0.00    +0.381 C 
ATOM     41  N   UNL     1      30.229 -42.638 -12.040  0.00  0.00    -0.233 NA
ATOM     42  H   UNL     1      29.796 -43.521 -11.772  0.00  0.00    +0.193 HD
BRANCH  40  43
ATOM     43  O   UNL     1      30.398 -40.476 -11.474  0.00  0.00    -0.466 OA
ATOM     44  H   UNL     1      31.016 -40.561 -12.216  0.00  0.00    +0.297 HD
ENDBRANCH  40  43
ENDBRANCH  39  40
ENDBRANCH  14  39
TORSDOF 8
ENDMDL
MODEL 3
REMARK minimizedAffinity -1.55754864
REMARK minimizedRMSD -1
REMARK  Name = 
REMARK  15 active torsions:
REMARK  status: ('A' for Active; 'I' for Inactive)
REMARK    1  A    between atoms: C_1  and  O_2
REMARK    2  A    between atoms: O_2  and  C_3
REMARK    3  A    between atoms: C_6  and  C_7
REMARK    4  A    between atoms: C_9  and  O_10
REMARK    5  A    between atoms: O_10  and  C_11
REMARK    6  A    between atoms: C_12  and  O_13
REMARK    7  A    between atoms: C_14  and  C_15
REMARK    8  A    between atoms: C_17  and  C_18
REMARK    9  A    between atoms: C_19  and  O_20
REMARK   10  A    between atoms: O_20  and  C_21
REMARK   11  A    between atoms: C_21  and  O_23
REMARK   12  A    between atoms: C_24  and  O_25
REMARK   13  A    between atoms: O_25  and  C_26
REMARK   14  A    between atoms: C_30  and  C_31
REMARK   15  A    between atoms: C_32  and  O_33
REMARK                            x       y       z     vdW  Elec       q    Type
REMARK                         _______ _______ _______ _____ _____    ______ ____
ROOT
ATOM      1  C   UNL     1      30.605 -34.723  -9.280  0.00  0.00    +0.173 C 
ATOM      2  C   UNL     1      29.545 -35.511  -9.024  0.00  0.00    +0.047 C 
ATOM      3  C   UNL     1      29.538 -36.579  -7.952  0.00  0.00    +0.046 C 
ATOM      4  C   UNL     1      29.433 -38.034  -8.483  0.00  0.00    -0.007 C 
ATOM      5  C   UNL     1      30.580 -38.361  -9.445  0.00  0.00    +0.008 C 
ATOM      6  C   UNL     1      29.384 -38.994  -7.268  0.00  0.00    +0.037 C 
ATOM      7  C   UNL     1      29.037 -40.478  -7.540  0.00  0.00    +0.147 C 
ATOM      8  C   UNL     1      27.642 -40.649  -8.202  0.00  0.00    +0.150 C 
ATOM      9  C   UNL     1      27.283 -42.122  -8.542  0.00  0.00    +0.040 C 
ATOM     10  C   UNL     1      27.366 -43.050  -7.319  0.00  0.00    +0.014 C 
ATOM     11  C   UNL     1      25.882 -42.233  -9.129  0.00  0.00    -0.019 C 
ATOM     12  C   UNL     1      25.449 -42.131 -10.407  0.00  0.00    -0.033 C 
ATOM     13  C   UNL     1      23.984 -42.419 -10.672  0.00  0.00    +0.042 C 
ATOM     14  C   UNL     1      26.258 -41.810 -11.678  0.00  0.00    +0.236 C 
ATOM     15  C   UNL     1      25.757 -40.582 -12.520  0.00  0.00    +0.186 C 
ATOM     16  C   UNL     1      25.496 -39.339 -11.697  0.00  0.00    +0.008 C 
ATOM     17  C   UNL     1      26.146 -38.165 -11.737  0.00  0.00    -0.001 C 
ATOM     18  C   UNL     1      27.323 -37.869 -12.527  0.00  0.00    +0.008 C 
ATOM     19  C   UNL     1      27.760 -36.647 -12.884  0.00  0.00    +0.011 C 
ATOM     20  C   UNL     1      28.999 -36.439 -13.698  0.00  0.00    +0.049 C 
ATOM     21  C   UNL     1      26.984 -35.420 -12.583  0.00  0.00    +0.216 C 
ATOM     22  N   UNL     1      27.181 -34.415 -11.809  0.00  0.00    -0.209 NA
ATOM     23  C   UNL     1      28.288 -34.467 -10.995  0.00  0.00    +0.118 C 
ATOM     24  C   UNL     1      29.345 -33.685 -11.225  0.00  0.00    +0.086 C 
ATOM     25  C   UNL     1      30.547 -33.712 -10.383  0.00  0.00    +0.223 C 
ATOM     26  O   UNL     1      31.462 -32.936 -10.632  0.00  0.00    -0.284 OA
ATOM     27  C   UNL     1      28.271 -35.343  -9.779  0.00  0.00    +0.211 C 
ATOM     28  O   UNL     1      27.243 -35.910  -9.419  0.00  0.00    -0.285 OA
ENDROOT
BRANCH   7  29
ATOM     29  O   UNL     1      30.028 -41.131  -8.335  0.00  0.00    -0.377 OA
ATOM     30  C   UNL     1      31.126 -41.634  -7.588  0.00  0.00    +0.194 C 
ENDBRANCH   7  29
BRANCH   8  31
ATOM     31  O   UNL     1      26.654 -40.086  -7.325  0.00  0.00    -0.389 OA
ATOM     32  H   UNL     1      25.855 -39.958  -7.868  0.00  0.00    +0.210 HD
ENDBRANCH   8  31
BRANCH  21  33
ATOM     33  O   UNL     1      25.885 -35.379 -13.357  0.00  0.00    -0.492 OA
ATOM     34  H   UNL     1      25.397 -34.576 -13.116  0.00  0.00    +0.294 HD
ENDBRANCH  21  33
BRANCH   1  36
ATOM     35  C   UNL     1      32.043 -33.904  -7.582  0.00  0.00    +0.277 C 
ATOM     36  O   UNL     1      31.778 -34.909  -8.557  0.00  0.00    -0.491 OA
ENDBRANCH   1  36
BRANCH  15  37
ATOM     37  O   UNL     1      24.547 -40.954 -13.207  0.00  0.00    -0.372 OA
ATOM     38  C   UNL     1      23.976 -39.882 -13.951  0.00  0.00    +0.195 C 
ENDBRANCH  15  37
BRANCH  14  39
ATOM     39  O   UNL     1      27.650 -41.604 -11.368  0.00  0.00    -0.439 OA
BRANCH  39  40
ATOM     40  C   UNL     1      28.607 -41.904 -12.258  0.00  0.00    +0.381 C 
ATOM     41  N   UNL     1      29.298 -41.134 -13.009  0.00  0.00    -0.233 NA
ATOM     42  H   UNL     1      29.025 -40.158 -12.903  0.00  0.00    +0.193 HD
BRANCH  40  43
ATOM     43  O   UNL     1      28.838 -43.213 -12.307  0.00  0.00    -0.466 OA
ATOM     44  H   UNL     1      29.511 -43.352 -12.990  0.00  0.00    +0.297 HD
ENDBRANCH  40  43
ENDBRANCH  39  40
ENDBRANCH  14  39
TORSDOF 8
ENDMDL
MODEL 4
REMARK minimizedAffinity -0.816882968
REMARK minimizedRMSD -1
REMARK  Name = 
REMARK  15 active torsions:
REMARK  status: ('A' for Active; 'I' for Inactive)
REMARK    1  A    between atoms: C_1  and  O_2
REMARK    2  A    between atoms: O_2  and  C_3
REMARK    3  A    between atoms: C_6  and  C_7
REMARK    4  A    between atoms: C_9  and  O_10
REMARK    5  A    between atoms: O_10  and  C_11
REMARK    6  A    between atoms: C_12  and  O_13
REMARK    7  A    between atoms: C_14  and  C_15
REMARK    8  A    between atoms: C_17  and  C_18
REMARK    9  A    between atoms: C_19  and  O_20
REMARK   10  A    between atoms: O_20  and  C_21
REMARK   11  A    between atoms: C_21  and  O_23
REMARK   12  A    between atoms: C_24  and  O_25
REMARK   13  A    between atoms: O_25  and  C_26
REMARK   14  A    between atoms: C_30  and  C_31
REMARK   15  A    between atoms: C_32  and  O_33
REMARK                            x       y       z     vdW  Elec       q    Type
REMARK                         _______ _______ _______ _____ _____    ______ ____
ROOT
ATOM      1  C   UNL     1      27.840 -27.066  -7.860  0.00  0.00    +0.173 C 
ATOM      2  C   UNL     1      28.708 -27.817  -8.560  0.00  0.00    +0.047 C 
ATOM      3  C   UNL     1      28.563 -28.100 -10.040  0.00  0.00    +0.046 C 
ATOM      4  C   UNL     1      28.284 -29.585 -10.395  0.00  0.00    -0.007 C 
ATOM      5  C   UNL     1      27.014 -30.093  -9.707  0.00  0.00    +0.008 C 
ATOM      6  C   UNL     1      28.219 -29.713 -11.938  0.00  0.00    +0.037 C 
ATOM      7  C   UNL     1      28.189 -31.140 -12.539  0.00  0.00    +0.147 C 
ATOM      8  C   UNL     1      29.444 -31.970 -12.153  0.00  0.00    +0.150 C 
ATOM      9  C   UNL     1      29.423 -33.428 -12.691  0.00  0.00    +0.040 C 
ATOM     10  C   UNL     1      29.238 -33.494 -14.216  0.00  0.00    +0.014 C 
ATOM     11  C   UNL     1      30.704 -34.171 -12.336  0.00  0.00    -0.019 C 
ATOM     12  C   UNL     1      31.035 -34.885 -11.235  0.00  0.00    -0.033 C 
ATOM     13  C   UNL     1      32.366 -35.612 -11.249  0.00  0.00    +0.042 C 
ATOM     14  C   UNL     1      30.214 -35.120  -9.953  0.00  0.00    +0.236 C 
ATOM     15  C   UNL     1      30.908 -34.706  -8.606  0.00  0.00    +0.186 C 
ATOM     16  C   UNL     1      31.518 -33.321  -8.630  0.00  0.00    +0.008 C 
ATOM     17  C   UNL     1      31.155 -32.240  -7.921  0.00  0.00    -0.001 C 
ATOM     18  C   UNL     1      30.013 -32.147  -7.036  0.00  0.00    +0.008 C 
ATOM     19  C   UNL     1      29.839 -31.250  -6.047  0.00  0.00    +0.011 C 
ATOM     20  C   UNL     1      28.615 -31.226  -5.186  0.00  0.00    +0.049 C 
ATOM     21  C   UNL     1      30.899 -30.284  -5.671  0.00  0.00    +0.216 C 
ATOM     22  N   UNL     1      31.008 -29.009  -5.760  0.00  0.00    -0.209 NA
ATOM     23  C   UNL     1      29.994 -28.344  -6.410  0.00  0.00    +0.118 C 
ATOM     24  C   UNL     1      29.130 -27.584  -5.734  0.00  0.00    +0.086 C 
ATOM     25  C   UNL     1      28.032 -26.862  -6.389  0.00  0.00    +0.223 C 
ATOM     26  O   UNL     1      27.301 -26.152  -5.708  0.00  0.00    -0.284 OA
ATOM     27  C   UNL     1      29.916 -28.396  -7.906  0.00  0.00    +0.211 C 
ATOM     28  O   UNL     1      30.813 -28.905  -8.572  0.00  0.00    -0.285 OA
ENDROOT
BRANCH   7  29
ATOM     29  O   UNL     1      27.008 -31.858 -12.176  0.00  0.00    -0.377 OA
ATOM     30  C   UNL     1      25.958 -31.754 -13.126  0.00  0.00    +0.194 C 
ENDBRANCH   7  29
BRANCH   8  31
ATOM     31  O   UNL     1      30.609 -31.279 -12.632  0.00  0.00    -0.389 OA
ATOM     32  H   UNL     1      31.364 -31.662 -12.152  0.00  0.00    +0.210 HD
ENDBRANCH   8  31
BRANCH  21  33
ATOM     33  O   UNL     1      31.906 -30.934  -5.061  0.00  0.00    -0.492 OA
ATOM     34  H   UNL     1      32.585 -30.274  -4.850  0.00  0.00    +0.294 HD
ENDBRANCH  21  33
BRANCH   1  36
ATOM     35  C   UNL     1      25.473 -26.971  -7.966  0.00  0.00    +0.277 C 
ATOM     36  O   UNL     1      26.723 -26.543  -8.502  0.00  0.00    -0.491 OA
ENDBRANCH   1  36
BRANCH  15  37
ATOM     37  O   UNL     1      31.935 -35.668  -8.299  0.00  0.00    -0.372 OA
ATOM     38  C   UNL     1      32.098 -35.883  -6.900  0.00  0.00    +0.195 C 
ENDBRANCH  15  37
BRANCH  14  39
ATOM     39  O   UNL     1      28.939 -34.451 -10.025  0.00  0.00    -0.439 OA
BRANCH  39  40
ATOM     40  C   UNL     1      27.795 -35.149 -10.039  0.00  0.00    +0.381 C 
ATOM     41  N   UNL     1      26.889 -35.220 -10.937  0.00  0.00    -0.233 NA
ATOM     42  H   UNL     1      27.095 -34.615 -11.731  0.00  0.00    +0.193 HD
BRANCH  40  43
ATOM     43  O   UNL     1      27.647 -35.870  -8.930  0.00  0.00    -0.466 OA
ATOM     44  H   UNL     1      26.789 -36.316  -9.000  0.00  0.00    +0.297 HD
ENDBRANCH  40  43
ENDBRANCH  39  40
ENDBRANCH  14  39
TORSDOF 8
ENDMDL
MODEL 5
REMARK minimizedAffinity -0.460348427
REMARK minimizedRMSD -1
REMARK  Name = 
REMARK  15 active torsions:
REMARK  status: ('A' for Active; 'I' for Inactive)
REMARK    1  A    between atoms: C_1  and  O_2
REMARK    2  A    between atoms: O_2  and  C_3
REMARK    3  A    between atoms: C_6  and  C_7
REMARK    4  A    between atoms: C_9  and  O_10
REMARK    5  A    between atoms: O_10  and  C_11
REMARK    6  A    between atoms: C_12  and  O_13
REMARK    7  A    between atoms: C_14  and  C_15
REMARK    8  A    between atoms: C_17  and  C_18
REMARK    9  A    between atoms: C_19  and  O_20
REMARK   10  A    between atoms: O_20  and  C_21
REMARK   11  A    between atoms: C_21  and  O_23
REMARK   12  A    between atoms: C_24  and  O_25
REMARK   13  A    between atoms: O_25  and  C_26
REMARK   14  A    between atoms: C_30  and  C_31
REMARK   15  A    between atoms: C_32  and  O_33
REMARK                            x       y       z     vdW  Elec       q    Type
REMARK                         _______ _______ _______ _____ _____    ______ ____
ROOT
ATOM      1  C   UNL     1      30.316 -33.945  -7.066  0.00  0.00    +0.173 C 
ATOM      2  C   UNL     1      30.729 -34.889  -7.929  0.00  0.00    +0.047 C 
ATOM      3  C   UNL     1      30.414 -34.862  -9.409  0.00  0.00    +0.046 C 
ATOM      4  C   UNL     1      29.488 -36.007  -9.899  0.00  0.00    -0.007 C 
ATOM      5  C   UNL     1      28.153 -36.004  -9.149  0.00  0.00    +0.008 C 
ATOM      6  C   UNL     1      29.310 -35.869 -11.432  0.00  0.00    +0.037 C 
ATOM      7  C   UNL     1      28.624 -37.036 -12.184  0.00  0.00    +0.147 C 
ATOM      8  C   UNL     1      29.390 -38.376 -12.021  0.00  0.00    +0.150 C 
ATOM      9  C   UNL     1      28.700 -39.584 -12.715  0.00  0.00    +0.040 C 
ATOM     10  C   UNL     1      28.444 -39.340 -14.211  0.00  0.00    +0.014 C 
ATOM     11  C   UNL     1      29.528 -40.855 -12.575  0.00  0.00    -0.019 C 
ATOM     12  C   UNL     1      29.549 -41.792 -11.600  0.00  0.00    -0.033 C 
ATOM     13  C   UNL     1      30.414 -43.017 -11.829  0.00  0.00    +0.042 C 
ATOM     14  C   UNL     1      28.761 -41.828 -10.277  0.00  0.00    +0.236 C 
ATOM     15  C   UNL     1      29.620 -41.959  -8.968  0.00  0.00    +0.186 C 
ATOM     16  C   UNL     1      30.783 -40.993  -8.898  0.00  0.00    +0.008 C 
ATOM     17  C   UNL     1      30.968 -39.977  -8.039  0.00  0.00    -0.001 C 
ATOM     18  C   UNL     1      30.024 -39.524  -7.040  0.00  0.00    +0.008 C 
ATOM     19  C   UNL     1      30.309 -38.796  -5.944  0.00  0.00    +0.011 C 
ATOM     20  C   UNL     1      29.259 -38.364  -4.967  0.00  0.00    +0.049 C 
ATOM     21  C   UNL     1      31.702 -38.456  -5.569  0.00  0.00    +0.216 C 
ATOM     22  N   UNL     1      32.365 -37.357  -5.525  0.00  0.00    -0.209 NA
ATOM     23  C   UNL     1      31.729 -36.231  -5.992  0.00  0.00    +0.118 C 
ATOM     24  C   UNL     1      31.322 -35.276  -5.152  0.00  0.00    +0.086 C 
ATOM     25  C   UNL     1      30.637 -34.060  -5.608  0.00  0.00    +0.223 C 
ATOM     26  O   UNL     1      30.328 -33.210  -4.782  0.00  0.00    -0.284 OA
ATOM     27  C   UNL     1      31.576 -36.026  -7.468  0.00  0.00    +0.211 C 
ATOM     28  O   UNL     1      32.125 -36.773  -8.274  0.00  0.00    -0.285 OA
ENDROOT
BRANCH   7  29
ATOM     29  O   UNL     1      27.262 -37.211 -11.788  0.00  0.00    -0.377 OA
ATOM     30  C   UNL     1      26.351 -36.358 -12.466  0.00  0.00    +0.194 C 
ENDBRANCH   7  29
BRANCH   8  31
ATOM     31  O   UNL     1      30.721 -38.202 -12.534  0.00  0.00    -0.389 OA
ATOM     32  H   UNL     1      31.245 -38.942 -12.178  0.00  0.00    +0.210 HD
ENDBRANCH   8  31
BRANCH  21  33
ATOM     33  O   UNL     1      32.337 -39.561  -5.140  0.00  0.00    -0.492 OA
ATOM     34  H   UNL     1      33.247 -39.301  -4.925  0.00  0.00    +0.294 HD
ENDBRANCH  21  33
BRANCH   1  36
ATOM     35  C   UNL     1      30.105 -31.605  -7.388  0.00  0.00    +0.277 C 
ATOM     36  O   UNL     1      29.525 -32.900  -7.530  0.00  0.00    -0.491 OA
ENDBRANCH   1  36
BRANCH  15  37
ATOM     37  O   UNL     1      30.121 -43.306  -8.876  0.00  0.00    -0.372 OA
ATOM     38  C   UNL     1      31.331 -43.401  -8.130  0.00  0.00    +0.195 C 
ENDBRANCH  15  37
BRANCH  14  39
ATOM     39  O   UNL     1      27.917 -40.667 -10.146  0.00  0.00    -0.439 OA
BRANCH  39  40
ATOM     40  C   UNL     1      26.821 -40.696  -9.373  0.00  0.00    +0.381 C 
ATOM     41  N   UNL     1      26.662 -40.319  -8.163  0.00  0.00    -0.233 NA
ATOM     42  H   UNL     1      27.533 -39.983  -7.753  0.00  0.00    +0.193 HD
BRANCH  40  43
ATOM     43  O   UNL     1      25.771 -41.181 -10.030  0.00  0.00    -0.466 OA
ATOM     44  H   UNL     1      25.034 -41.201  -9.401  0.00  0.00    +0.297 HD
ENDBRANCH  40  43
ENDBRANCH  39  40
ENDBRANCH  14  39
TORSDOF 8
ENDMDL
MODEL 6
REMARK minimizedAffinity -0.176316634
REMARK minimizedRMSD -1
REMARK  Name = 
REMARK  15 active torsions:
REMARK  status: ('A' for Active; 'I' for Inactive)
REMARK    1  A    between atoms: C_1  and  O_2
REMARK    2  A    between atoms: O_2  and  C_3
REMARK    3  A    between atoms: C_6  and  C_7
REMARK    4  A    between atoms: C_9  and  O_10
REMARK    5  A    between atoms: O_10  and  C_11
REMARK    6  A    between atoms: C_12  and  O_13
REMARK    7  A    between atoms: C_14  and  C_15
REMARK    8  A    between atoms: C_17  and  C_18
REMARK    9  A    between atoms: C_19  and  O_20
REMARK   10  A    between atoms: O_20  and  C_21
REMARK   11  A    between atoms: C_21  and  O_23
REMARK   12  A    between atoms: C_24  and  O_25
REMARK   13  A    between atoms: O_25  and  C_26
REMARK   14  A    between atoms: C_30  and  C_31
REMARK   15  A    between atoms: C_32  and  O_33
REMARK                            x       y       z     vdW  Elec       q    Type
REMARK                         _______ _______ _______ _____ _____    ______ ____
ROOT
ATOM      1  C   UNL     1      29.220 -33.318 -11.787  0.00  0.00    +0.173 C 
ATOM      2  C   UNL     1      29.729 -34.541 -12.015  0.00  0.00    +0.047 C 
ATOM      3  C   UNL     1      29.302 -35.422 -13.169  0.00  0.00    +0.046 C 
ATOM      4  C   UNL     1      28.564 -36.723 -12.756  0.00  0.00    -0.007 C 
ATOM      5  C   UNL     1      27.312 -36.416 -11.930  0.00  0.00    +0.008 C 
ATOM      6  C   UNL     1      28.247 -37.532 -14.039  0.00  0.00    +0.037 C 
ATOM      7  C   UNL     1      27.728 -38.980 -13.865  0.00  0.00    +0.147 C 
ATOM      8  C   UNL     1      28.735 -39.882 -13.100  0.00  0.00    +0.150 C 
ATOM      9  C   UNL     1      28.223 -41.329 -12.856  0.00  0.00    +0.040 C 
ATOM     10  C   UNL     1      27.813 -42.040 -14.157  0.00  0.00    +0.014 C 
ATOM     11  C   UNL     1      29.275 -42.182 -12.160  0.00  0.00    -0.019 C 
ATOM     12  C   UNL     1      29.541 -42.359 -10.846  0.00  0.00    -0.033 C 
ATOM     13  C   UNL     1      30.593 -43.388 -10.478  0.00  0.00    +0.042 C 
ATOM     14  C   UNL     1      28.876 -41.690  -9.627  0.00  0.00    +0.236 C 
ATOM     15  C   UNL     1      29.843 -40.937  -8.643  0.00  0.00    +0.186 C 
ATOM     16  C   UNL     1      30.813 -40.002  -9.332  0.00  0.00    +0.008 C 
ATOM     17  C   UNL     1      30.877 -38.663  -9.249  0.00  0.00    -0.001 C 
ATOM     18  C   UNL     1      29.946 -37.809  -8.543  0.00  0.00    +0.008 C 
ATOM     19  C   UNL     1      30.177 -36.550  -8.123  0.00  0.00    +0.011 C 
ATOM     20  C   UNL     1      29.145 -35.737  -7.406  0.00  0.00    +0.049 C 
ATOM     21  C   UNL     1      31.511 -35.915  -8.250  0.00  0.00    +0.216 C 
ATOM     22  N   UNL     1      31.965 -34.940  -8.950  0.00  0.00    -0.209 NA
ATOM     23  C   UNL     1      31.102 -34.376  -9.860  0.00  0.00    +0.118 C 
ATOM     24  C   UNL     1      30.594 -33.158  -9.658  0.00  0.00    +0.086 C 
ATOM     25  C   UNL     1      29.667 -32.520 -10.601  0.00  0.00    +0.223 C 
ATOM     26  O   UNL     1      29.273 -31.384 -10.368  0.00  0.00    -0.284 OA
ATOM     27  C   UNL     1      30.801 -35.095 -11.140  0.00  0.00    +0.211 C 
ATOM     28  O   UNL     1      31.413 -36.112 -11.455  0.00  0.00    -0.285 OA
ENDROOT
BRANCH   7  29
ATOM     29  O   UNL     1      26.454 -39.027 -13.218  0.00  0.00    -0.377 OA
ATOM     30  C   UNL     1      25.352 -38.984 -14.113  0.00  0.00    +0.194 C 
ENDBRANCH   7  29
BRANCH   8  31
ATOM     31  O   UNL     1      29.968 -39.908 -13.837  0.00  0.00    -0.389 OA
ATOM     32  H   UNL     1      30.643 -40.238 -13.217  0.00  0.00    +0.210 HD
ENDBRANCH   8  31
BRANCH  21  33
ATOM     33  O   UNL     1      32.366 -36.484  -7.382  0.00  0.00    -0.492 OA
ATOM     34  H   UNL     1      33.228 -36.057  -7.510  0.00  0.00    +0.294 HD
ENDBRANCH  21  33
BRANCH   1  36
ATOM     35  C   UNL     1      28.666 -31.913 -13.615  0.00  0.00    +0.277 C 
ATOM     36  O   UNL     1      28.219 -32.834 -12.623  0.00  0.00    -0.491 OA
ENDBRANCH   1  36
BRANCH  15  37
ATOM     37  O   UNL     1      30.585 -41.913  -7.887  0.00  0.00    -0.372 OA
ATOM     38  C   UNL     1      31.042 -41.416  -6.633  0.00  0.00    +0.195 C 
ENDBRANCH  15  37
BRANCH  14  39
ATOM     39  O   UNL     1      27.849 -40.768 -10.040  0.00  0.00    -0.439 OA
BRANCH  39  40
ATOM     40  C   UNL     1      26.600 -40.868  -9.562  0.00  0.00    +0.381 C 
ATOM     41  N   UNL     1      25.481 -40.836 -10.179  0.00  0.00    -0.233 NA
ATOM     42  H   UNL     1      25.605 -40.677 -11.177  0.00  0.00    +0.193 HD
BRANCH  40  43
ATOM     43  O   UNL     1      26.593 -41.046  -8.243  0.00  0.00    -0.466 OA
ATOM     44  H   UNL     1      25.663 -41.076  -7.971  0.00  0.00    +0.297 HD
ENDBRANCH  40  43
ENDBRANCH  39  40
ENDBRANCH  14  39
TORSDOF 8
ENDMDL
