REMARK  Name = 
REMARK  15 active torsions:
REMARK  status: ('A' for Active; 'I' for Inactive)
REMARK    1  A    between atoms: C_1  and  O_2
REMARK    2  A    between atoms: O_2  and  C_3
REMARK    3  A    between atoms: C_6  and  C_7
REMARK    4  A    between atoms: C_9  and  O_10
REMARK    5  A    between atoms: O_10  and  C_11
REMARK    6  A    between atoms: C_12  and  O_13
REMARK    7  A    between atoms: C_14  and  C_15
REMARK    8  A    between atoms: C_17  and  C_18
REMARK    9  A    between atoms: C_19  and  O_20
REMARK   10  A    between atoms: O_20  and  C_21
REMARK   11  A    between atoms: C_21  and  O_23
REMARK   12  A    between atoms: C_24  and  O_25
REMARK   13  A    between atoms: O_25  and  C_26
REMARK   14  A    between atoms: C_30  and  C_31
REMARK   15  A    between atoms: C_32  and  O_33
REMARK                            x       y       z     vdW  Elec       q    Type
REMARK                         _______ _______ _______ _____ _____    ______ ____
ROOT
ATOM      1  C   UNL     1      -3.427   1.387   2.003  0.00  0.00    +0.173 C 
ATOM      2  C   UNL     1      -2.817   0.806   0.955  0.00  0.00    +0.047 C 
ATOM      3  C   UNL     1      -3.302  -0.468   0.293  0.00  0.00    +0.046 C 
ATOM      4  C   UNL     1      -2.490  -1.746   0.647  0.00  0.00    -0.007 C 
ATOM      5  C   UNL     1      -3.225  -2.966   0.081  0.00  0.00    +0.008 C 
ATOM      6  C   UNL     1      -1.032  -1.665   0.131  0.00  0.00    +0.037 C 
ATOM      7  C   UNL     1      -0.170  -2.930   0.299  0.00  0.00    +0.147 C 
ATOM      8  C   UNL     1       1.277  -2.664  -0.233  0.00  0.00    +0.150 C 
ATOM      9  C   UNL     1       2.158  -1.795   0.719  0.00  0.00    +0.040 C 
ATOM     10  C   UNL     1       3.242  -2.569   1.475  0.00  0.00    +0.014 C 
ATOM     11  C   UNL     1       2.761  -0.553   0.071  0.00  0.00    -0.019 C 
ATOM     12  C   UNL     1       3.579  -0.417  -0.997  0.00  0.00    -0.033 C 
ATOM     13  C   UNL     1       4.088  -1.562  -1.834  0.00  0.00    +0.042 C 
ATOM     14  C   UNL     1       4.139   0.949  -1.433  0.00  0.00    +0.236 C 
ATOM     15  C   UNL     1       3.319   1.762  -2.510  0.00  0.00    +0.186 C 
ATOM     16  C   UNL     1       1.944   1.228  -2.816  0.00  0.00    +0.008 C 
ATOM     17  C   UNL     1       0.747   1.834  -2.798  0.00  0.00    -0.001 C 
ATOM     18  C   UNL     1       0.367   3.194  -2.482  0.00  0.00    +0.008 C 
ATOM     19  C   UNL     1       0.364   3.825  -1.293  0.00  0.00    +0.011 C 
ATOM     20  C   UNL     1      -0.171   5.212  -1.108  0.00  0.00    +0.049 C 
ATOM     21  C   UNL     1       0.935   3.226  -0.073  0.00  0.00    +0.216 C 
ATOM     22  N   UNL     1       0.489   2.636   0.970  0.00  0.00    -0.209 NA
ATOM     23  C   UNL     1      -0.856   2.432   1.152  0.00  0.00    +0.118 C 
ATOM     24  C   UNL     1      -1.466   2.977   2.209  0.00  0.00    +0.086 C 
ATOM     25  C   UNL     1      -2.848   2.643   2.585  0.00  0.00    +0.223 C 
ATOM     26  O   UNL     1      -3.438   3.362   3.382  0.00  0.00    -0.284 OA
ATOM     27  C   UNL     1      -1.641   1.466   0.322  0.00  0.00    +0.211 C 
ATOM     28  O   UNL     1      -1.333   1.187  -0.830  0.00  0.00    -0.285 OA
ENDROOT
BRANCH   7  29
ATOM     29  O   UNL     1      -0.200  -3.296   1.684  0.00  0.00    -0.377 OA
ATOM     30  C   UNL     1       0.073  -4.672   1.915  0.00  0.00    +0.194 C 
ENDBRANCH   7  29
BRANCH   8  31
ATOM     31  O   UNL     1       1.913  -3.924  -0.513  0.00  0.00    -0.389 OA
ATOM     32  H   UNL     1       1.415  -4.345  -1.234  0.00  0.00    +0.210 HD
ENDBRANCH   8  31
BRANCH  21  33
ATOM     33  O   UNL     1       2.251   3.495  -0.081  0.00  0.00    -0.492 OA
ATOM     34  H   UNL     1       2.651   3.082   0.705  0.00  0.00    +0.294 HD
ENDBRANCH  21  33
BRANCH   1  36
ATOM     35  C   UNL     1      -5.563   1.647   3.038  0.00  0.00    +0.277 C 
ATOM     36  O   UNL     1      -4.546   0.776   2.553  0.00  0.00    -0.491 OA
ENDBRANCH   1  36
BRANCH  15  37
ATOM     37  O   UNL     1       4.088   1.685  -3.735  0.00  0.00    -0.372 OA
ATOM     38  C   UNL     1       3.860   2.795  -4.597  0.00  0.00    +0.195 C 
ENDBRANCH  15  37
BRANCH  14  39
ATOM     39  O   UNL     1       4.354   1.754  -0.247  0.00  0.00    -0.439 OA
BRANCH  39  40
ATOM     40  C   UNL     1       5.239   2.761  -0.278  0.00  0.00    +0.381 C 
ATOM     41  N   UNL     1       5.982   3.174  -1.231  0.00  0.00    -0.233 NA
ATOM     42  H   UNL     1       5.849   2.619  -2.079  0.00  0.00    +0.193 HD
BRANCH  40  43
ATOM     43  O   UNL     1       5.285   3.396   0.893  0.00  0.00    -0.466 OA
ATOM     44  H   UNL     1       5.941   4.103   0.790  0.00  0.00    +0.297 HD
ENDBRANCH  40  43
ENDBRANCH  39  40
ENDBRANCH  14  39
TORSDOF 8
