REMARK  Name = 
REMARK  15 active torsions:
REMARK  status: ('A' for Active; 'I' for Inactive)
REMARK    1  A    between atoms: C_1  and  O_2
REMARK    2  A    between atoms: O_2  and  C_3
REMARK    3  A    between atoms: C_6  and  C_7
REMARK    4  A    between atoms: C_9  and  O_10
REMARK    5  A    between atoms: O_10  and  C_11
REMARK    6  A    between atoms: C_12  and  O_13
REMARK    7  A    between atoms: C_14  and  C_15
REMARK    8  A    between atoms: C_17  and  C_18
REMARK    9  A    between atoms: C_19  and  O_20
REMARK   10  A    between atoms: O_20  and  C_21
REMARK   11  A    between atoms: C_21  and  O_23
REMARK   12  A    between atoms: C_24  and  O_25
REMARK   13  A    between atoms: O_25  and  C_26
REMARK   14  A    between atoms: C_30  and  C_31
REMARK   15  A    between atoms: C_32  and  O_33
REMARK                            x       y       z     vdW  Elec       q    Type
REMARK                         _______ _______ _______ _____ _____    ______ ____
ROOT
ATOM      1  C   UNL     1      -2.550   2.546  -0.623  0.00  0.00    +0.173 C 
ATOM      2  C   UNL     1      -1.544   3.085   0.088  0.00  0.00    +0.047 C 
ATOM      3  C   UNL     1      -1.587   3.247   1.595  0.00  0.00    +0.046 C 
ATOM      4  C   UNL     1      -0.523   2.425   2.369  0.00  0.00    -0.007 C 
ATOM      5  C   UNL     1      -0.756   2.544   3.878  0.00  0.00    +0.008 C 
ATOM      6  C   UNL     1      -0.394   0.948   1.927  0.00  0.00    +0.037 C 
ATOM      7  C   UNL     1      -1.619   0.046   2.193  0.00  0.00    +0.147 C 
ATOM      8  C   UNL     1      -1.999  -0.752   0.912  0.00  0.00    +0.150 C 
ATOM      9  C   UNL     1      -0.951  -1.810   0.433  0.00  0.00    +0.040 C 
ATOM     10  C   UNL     1      -1.269  -3.219   0.935  0.00  0.00    +0.014 C 
ATOM     11  C   UNL     1      -0.911  -1.782  -1.089  0.00  0.00    -0.019 C 
ATOM     12  C   UNL     1       0.091  -1.897  -1.990  0.00  0.00    -0.033 C 
ATOM     13  C   UNL     1      -0.276  -1.679  -3.453  0.00  0.00    +0.042 C 
ATOM     14  C   UNL     1       1.582  -2.241  -1.826  0.00  0.00    +0.236 C 
ATOM     15  C   UNL     1       2.272  -2.424  -0.439  0.00  0.00    +0.186 C 
ATOM     16  C   UNL     1       2.569  -1.218   0.431  0.00  0.00    +0.008 C 
ATOM     17  C   UNL     1       2.601   0.115   0.281  0.00  0.00    -0.001 C 
ATOM     18  C   UNL     1       2.299   0.957  -0.855  0.00  0.00    +0.008 C 
ATOM     19  C   UNL     1       2.595   2.271  -0.902  0.00  0.00    +0.011 C 
ATOM     20  C   UNL     1       3.323   3.064   0.142  0.00  0.00    +0.049 C 
ATOM     21  C   UNL     1       2.226   3.018  -2.123  0.00  0.00    +0.216 C 
ATOM     22  N   UNL     1       1.118   3.382  -2.659  0.00  0.00    -0.209 NA
ATOM     23  C   UNL     1      -0.061   3.109  -2.005  0.00  0.00    +0.118 C 
ATOM     24  C   UNL     1      -1.061   2.532  -2.677  0.00  0.00    +0.086 C 
ATOM     25  C   UNL     1      -2.377   2.268  -2.083  0.00  0.00    +0.223 C 
ATOM     26  O   UNL     1      -3.261   1.787  -2.783  0.00  0.00    -0.284 OA
ATOM     27  C   UNL     1      -0.315   3.576  -0.598  0.00  0.00    +0.211 C 
ATOM     28  O   UNL     1       0.459   4.334  -0.021  0.00  0.00    -0.285 OA
ENDROOT
BRANCH   7  29
ATOM     29  O   UNL     1      -1.264  -0.811   3.289  0.00  0.00    -0.377 OA
ATOM     30  C   UNL     1      -2.387  -1.283   4.023  0.00  0.00    +0.194 C 
ENDBRANCH   7  29
BRANCH   8  31
ATOM     31  O   UNL     1      -3.305  -1.326   1.070  0.00  0.00    -0.389 OA
ATOM     32  H   UNL     1      -3.551  -1.724   0.217  0.00  0.00    +0.210 HD
ENDBRANCH   8  31
BRANCH  21  33
ATOM     33  O   UNL     1       3.348   3.341  -2.789  0.00  0.00    -0.492 OA
ATOM     34  H   UNL     1       3.082   3.840  -3.579  0.00  0.00    +0.294 HD
ENDBRANCH  21  33
BRANCH   1  36
ATOM     35  C   UNL     1      -4.919   2.476  -0.614  0.00  0.00    +0.277 C 
ATOM     36  O   UNL     1      -3.699   2.131   0.037  0.00  0.00    -0.491 OA
ENDBRANCH   1  36
BRANCH  15  37
ATOM     37  O   UNL     1       3.579  -3.012  -0.668  0.00  0.00    -0.372 OA
ATOM     38  C   UNL     1       3.903  -4.045   0.254  0.00  0.00    +0.195 C 
ENDBRANCH  15  37
BRANCH  14  39
ATOM     39  O   UNL     1       1.864  -3.382  -2.708  0.00  0.00    -0.439 OA
BRANCH  39  40
ATOM     40  C   UNL     1       1.468  -4.620  -2.392  0.00  0.00    +0.381 C 
ATOM     41  N   UNL     1       0.833  -4.977  -1.343  0.00  0.00    -0.233 NA
ATOM     42  H   UNL     1       0.640  -5.977  -1.353  0.00  0.00    +0.193 HD
BRANCH  40  43
ATOM     43  O   UNL     1       1.814  -5.490  -3.345  0.00  0.00    -0.466 OA
ATOM     44  H   UNL     1       1.538  -6.387  -3.124  0.00  0.00    +0.297 HD
ENDBRANCH  40  43
ENDBRANCH  39  40
ENDBRANCH  14  39
TORSDOF 8
