REMARK  Name = 
REMARK  15 active torsions:
REMARK  status: ('A' for Active; 'I' for Inactive)
REMARK    1  A    between atoms: C_1  and  O_2
REMARK    2  A    between atoms: O_2  and  C_3
REMARK    3  A    between atoms: C_6  and  C_7
REMARK    4  A    between atoms: C_9  and  O_10
REMARK    5  A    between atoms: O_10  and  C_11
REMARK    6  A    between atoms: C_12  and  O_13
REMARK    7  A    between atoms: C_14  and  C_15
REMARK    8  A    between atoms: C_17  and  C_18
REMARK    9  A    between atoms: C_19  and  O_20
REMARK   10  A    between atoms: O_20  and  C_21
REMARK   11  A    between atoms: C_21  and  O_23
REMARK   12  A    between atoms: C_24  and  O_25
REMARK   13  A    between atoms: O_25  and  C_26
REMARK   14  A    between atoms: C_30  and  C_31
REMARK   15  A    between atoms: C_32  and  O_33
REMARK                            x       y       z     vdW  Elec       q    Type
REMARK                         _______ _______ _______ _____ _____    ______ ____
ROOT
ATOM      1  C   UNL     1      -2.405  -0.774   2.658  0.00  0.00    +0.173 C 
ATOM      2  C   UNL     1      -1.820   0.364   3.071  0.00  0.00    +0.047 C 
ATOM      3  C   UNL     1      -0.585   0.394   3.946  0.00  0.00    +0.046 C 
ATOM      4  C   UNL     1       0.728   0.744   3.199  0.00  0.00    -0.007 C 
ATOM      5  C   UNL     1       1.868   0.820   4.221  0.00  0.00    +0.008 C 
ATOM      6  C   UNL     1       1.018  -0.271   2.063  0.00  0.00    +0.037 C 
ATOM      7  C   UNL     1       2.383  -0.129   1.363  0.00  0.00    +0.147 C 
ATOM      8  C   UNL     1       2.607  -1.212   0.258  0.00  0.00    +0.150 C 
ATOM      9  C   UNL     1       1.864  -0.999  -1.101  0.00  0.00    +0.040 C 
ATOM     10  C   UNL     1       2.399  -1.965  -2.171  0.00  0.00    +0.014 C 
ATOM     11  C   UNL     1       0.372  -1.226  -0.993  0.00  0.00    -0.019 C 
ATOM     12  C   UNL     1      -0.672  -0.696  -1.669  0.00  0.00    -0.033 C 
ATOM     13  C   UNL     1      -2.051  -1.265  -1.382  0.00  0.00    +0.042 C 
ATOM     14  C   UNL     1      -0.721   0.342  -2.790  0.00  0.00    +0.236 C 
ATOM     15  C   UNL     1       0.394   1.405  -2.994  0.00  0.00    +0.186 C 
ATOM     16  C   UNL     1       0.859   2.225  -1.821  0.00  0.00    +0.008 C 
ATOM     17  C   UNL     1       0.238   2.858  -0.815  0.00  0.00    -0.001 C 
ATOM     18  C   UNL     1      -1.171   2.966  -0.518  0.00  0.00    +0.008 C 
ATOM     19  C   UNL     1      -1.658   3.772   0.446  0.00  0.00    +0.011 C 
ATOM     20  C   UNL     1      -0.872   4.714   1.307  0.00  0.00    +0.049 C 
ATOM     21  C   UNL     1      -3.118   3.773   0.674  0.00  0.00    +0.216 C 
ATOM     22  N   UNL     1      -3.949   2.929   1.167  0.00  0.00    -0.209 NA
ATOM     23  C   UNL     1      -3.465   1.737   1.660  0.00  0.00    +0.118 C 
ATOM     24  C   UNL     1      -4.033   0.593   1.274  0.00  0.00    +0.086 C 
ATOM     25  C   UNL     1      -3.609  -0.721   1.773  0.00  0.00    +0.223 C 
ATOM     26  O   UNL     1      -4.226  -1.719   1.418  0.00  0.00    -0.284 OA
ATOM     27  C   UNL     1      -2.412   1.690   2.732  0.00  0.00    +0.211 C 
ATOM     28  O   UNL     1      -2.046   2.704   3.320  0.00  0.00    -0.285 OA
ENDROOT
BRANCH   7  29
ATOM     29  O   UNL     1       2.488   1.216   0.881  0.00  0.00    -0.377 OA
ATOM     30  C   UNL     1       3.811   1.615   0.548  0.00  0.00    +0.194 C 
ENDBRANCH   7  29
BRANCH   8  31
ATOM     31  O   UNL     1       4.024  -1.307  -0.001  0.00  0.00    -0.389 OA
ATOM     32  H   UNL     1       4.446  -1.643   0.808  0.00  0.00    +0.210 HD
ENDBRANCH   8  31
BRANCH  21  33
ATOM     33  O   UNL     1      -3.629   4.935   0.232  0.00  0.00    -0.492 OA
ATOM     34  H   UNL     1      -4.585   4.914   0.407  0.00  0.00    +0.294 HD
ENDBRANCH  21  33
BRANCH   1  36
ATOM     35  C   UNL     1      -2.753  -2.991   3.428  0.00  0.00    +0.277 C 
ATOM     36  O   UNL     1      -1.829  -1.993   2.999  0.00  0.00    -0.491 OA
ENDBRANCH   1  36
BRANCH  15  37
ATOM     37  O   UNL     1      -0.089   2.357  -3.973  0.00  0.00    -0.372 OA
ATOM     38  C   UNL     1       0.944   2.862  -4.816  0.00  0.00    +0.195 C 
ENDBRANCH  15  37
BRANCH  14  39
ATOM     39  O   UNL     1      -0.811  -0.471  -4.002  0.00  0.00    -0.439 OA
BRANCH  39  40
ATOM     40  C   UNL     1      -1.616  -0.108  -5.009  0.00  0.00    +0.381 C 
ATOM     41  N   UNL     1      -2.069   1.046  -5.312  0.00  0.00    -0.233 NA
ATOM     42  H   UNL     1      -1.645   1.748  -4.687  0.00  0.00    +0.193 HD
BRANCH  40  43
ATOM     43  O   UNL     1      -1.946  -1.148  -5.774  0.00  0.00    -0.466 OA
ATOM     44  H   UNL     1      -2.518  -0.794  -6.474  0.00  0.00    +0.297 HD
ENDBRANCH  40  43
ENDBRANCH  39  40
ENDBRANCH  14  39
TORSDOF 8
