REMARK  Name = 
REMARK  14 active torsions:
REMARK  status: ('A' for Active; 'I' for Inactive)
REMARK    1  A    between atoms: C_1  and  O_2
REMARK    2  A    between atoms: O_2  and  C_3
REMARK    3  A    between atoms: C_6  and  C_7
REMARK    4  A    between atoms: C_9  and  O_10
REMARK    5  A    between atoms: O_10  and  C_11
REMARK    6  A    between atoms: C_12  and  O_13
REMARK    7  A    between atoms: C_14  and  C_15
REMARK    8  A    between atoms: C_17  and  C_18
REMARK    9  A    between atoms: C_19  and  O_20
REMARK   10  A    between atoms: O_20  and  C_21
REMARK   11  A    between atoms: C_24  and  O_25
REMARK   12  A    between atoms: O_25  and  C_26
REMARK   13  A    between atoms: C_30  and  C_31
REMARK   14  A    between atoms: C_37  and  O_38
REMARK                            x       y       z     vdW  Elec       q    Type
REMARK                         _______ _______ _______ _____ _____    ______ ____
ROOT
ATOM      1  C   UNL     1       1.792  -0.280  -4.378  0.00  0.00    +0.168 C 
ATOM      2  C   UNL     1       1.132  -0.502  -3.224  0.00  0.00    +0.047 C 
ATOM      3  C   UNL     1       0.900  -1.842  -2.566  0.00  0.00    +0.046 C 
ATOM      4  C   UNL     1       1.746  -2.175  -1.306  0.00  0.00    -0.007 C 
ATOM      5  C   UNL     1       3.243  -2.021  -1.610  0.00  0.00    +0.008 C 
ATOM      6  C   UNL     1       1.387  -1.365  -0.040  0.00  0.00    +0.037 C 
ATOM      7  C   UNL     1       0.184  -1.886   0.785  0.00  0.00    +0.147 C 
ATOM      8  C   UNL     1      -0.165  -0.871   1.925  0.00  0.00    +0.150 C 
ATOM      9  C   UNL     1      -1.427  -1.262   2.742  0.00  0.00    +0.040 C 
ATOM     10  C   UNL     1      -1.153  -2.522   3.591  0.00  0.00    +0.014 C 
ATOM     11  C   UNL     1      -2.109  -0.258   3.677  0.00  0.00    -0.019 C 
ATOM     12  C   UNL     1      -1.931   1.025   4.069  0.00  0.00    -0.033 C 
ATOM     13  C   UNL     1      -2.855   1.555   5.153  0.00  0.00    +0.042 C 
ATOM     14  C   UNL     1      -0.870   2.022   3.607  0.00  0.00    +0.236 C 
ATOM     15  C   UNL     1      -1.399   3.467   3.283  0.00  0.00    +0.186 C 
ATOM     16  C   UNL     1      -2.545   3.535   2.291  0.00  0.00    +0.008 C 
ATOM     17  C   UNL     1      -2.547   3.240   0.981  0.00  0.00    -0.001 C 
ATOM     18  C   UNL     1      -1.400   2.774   0.248  0.00  0.00    +0.008 C 
ATOM     19  C   UNL     1      -0.475   3.539  -0.358  0.00  0.00    +0.013 C 
ATOM     20  C   UNL     1      -0.449   5.024  -0.482  0.00  0.00    +0.049 C 
ATOM     21  C   UNL     1       0.695   2.792  -0.885  0.00  0.00    +0.264 C 
ATOM     22  O   UNL     1       1.340   2.017  -0.191  0.00  0.00    -0.268 OA
ATOM     23  N   UNL     1       1.005   3.080  -2.187  0.00  0.00    -0.173 NA
ATOM     24  C   UNL     1       1.006   2.059  -2.995  0.00  0.00    +0.107 C 
ATOM     25  C   UNL     1       1.594   2.178  -4.343  0.00  0.00    +0.078 C 
ATOM     26  C   UNL     1       1.979   1.051  -4.948  0.00  0.00    +0.161 C 
ATOM     27  C   UNL     1       0.435   0.683  -2.661  0.00  0.00    +0.209 C 
ATOM     28  O   UNL     1      -0.619   0.596  -2.047  0.00  0.00    -0.285 OA
ENDROOT
BRANCH   7  29
ATOM     29  O   UNL     1      -0.949  -2.065  -0.069  0.00  0.00    -0.377 OA
ATOM     30  C   UNL     1      -1.404  -3.409  -0.128  0.00  0.00    +0.194 C 
ENDBRANCH   7  29
BRANCH   8  31
ATOM     31  O   UNL     1       0.957  -0.766   2.806  0.00  0.00    -0.389 OA
ATOM     32  H   UNL     1       1.383   0.103   2.633  0.00  0.00    +0.210 HD
ENDBRANCH   8  31
BRANCH  26  33
ATOM     33  O   UNL     1       2.668   1.116  -6.142  0.00  0.00    -0.503 OA
ATOM     34  H   UNL     1       3.103   0.248  -6.258  0.00  0.00    +0.292 HD
ENDBRANCH  26  33
BRANCH   1  36
ATOM     35  C   UNL     1       1.488  -1.889  -6.029  0.00  0.00    +0.277 C 
ATOM     36  O   UNL     1       2.401  -1.298  -5.094  0.00  0.00    -0.491 OA
ENDBRANCH   1  36
BRANCH  15  37
ATOM     37  O   UNL     1      -0.305   4.276   2.811  0.00  0.00    -0.372 OA
ATOM     38  C   UNL     1      -0.443   5.651   3.138  0.00  0.00    +0.195 C 
ENDBRANCH  15  37
BRANCH  14  39
ATOM     39  O   UNL     1       0.046   2.158   4.728  0.00  0.00    -0.440 OA
BRANCH  39  40
ATOM     40  C   UNL     1       1.358   2.023   4.453  0.00  0.00    +0.398 C 
ATOM     41  N   UNL     1       2.082   2.239   5.575  0.00  0.00    -0.295 N 
ATOM     42  O   UNL     1       1.868   1.734   3.382  0.00  0.00    -0.227 OA
ATOM     43  H   UNL     1       1.615   2.448   6.442  0.00  0.00    +0.148 HD
ATOM     44  H   UNL     1       3.085   2.158   5.527  0.00  0.00    +0.148 HD
ENDBRANCH  39  40
ENDBRANCH  14  39
TORSDOF 7
