REMARK  Name = 
REMARK  15 active torsions:
REMARK  status: ('A' for Active; 'I' for Inactive)
REMARK    1  A    between atoms: C_1  and  O_2
REMARK    2  A    between atoms: O_2  and  C_3
REMARK    3  A    between atoms: C_6  and  C_7
REMARK    4  A    between atoms: C_9  and  O_10
REMARK    5  A    between atoms: O_10  and  C_11
REMARK    6  A    between atoms: C_12  and  O_13
REMARK    7  A    between atoms: C_14  and  C_15
REMARK    8  A    between atoms: C_17  and  C_18
REMARK    9  A    between atoms: C_19  and  O_20
REMARK   10  A    between atoms: O_20  and  C_21
REMARK   11  A    between atoms: C_24  and  O_25
REMARK   12  A    between atoms: O_25  and  C_26
REMARK   13  A    between atoms: C_30  and  C_31
REMARK   14  A    between atoms: C_32  and  O_33
REMARK   15  A    between atoms: C_37  and  O_38
REMARK                            x       y       z     vdW  Elec       q    Type
REMARK                         _______ _______ _______ _____ _____    ______ ____
ROOT
ATOM      1  C   UNL     1       0.067   4.723   1.030  0.00  0.00    +0.172 C 
ATOM      2  C   UNL     1      -0.576   3.429   1.302  0.00  0.00    +0.065 C 
ATOM      3  C   UNL     1      -0.299   2.741   2.435  0.00  0.00    -0.008 C 
ATOM      4  C   UNL     1      -0.792   1.425   3.003  0.00  0.00    +0.012 C 
ATOM      5  C   UNL     1      -2.301   1.402   3.273  0.00  0.00    +0.012 C 
ATOM      6  C   UNL     1      -0.303   0.165   2.254  0.00  0.00    +0.041 C 
ATOM      7  C   UNL     1       1.172  -0.193   2.550  0.00  0.00    +0.147 C 
ATOM      8  C   UNL     1       1.550  -1.561   1.906  0.00  0.00    +0.150 C 
ATOM      9  C   UNL     1       1.628  -1.579   0.357  0.00  0.00    +0.040 C 
ATOM     10  C   UNL     1       2.874  -0.909  -0.234  0.00  0.00    +0.014 C 
ATOM     11  C   UNL     1       1.597  -3.021  -0.132  0.00  0.00    -0.019 C 
ATOM     12  C   UNL     1       0.574  -3.668  -0.730  0.00  0.00    -0.033 C 
ATOM     13  C   UNL     1       0.760  -5.099  -1.174  0.00  0.00    +0.042 C 
ATOM     14  C   UNL     1      -0.808  -3.055  -0.983  0.00  0.00    +0.236 C 
ATOM     15  C   UNL     1      -1.065  -2.712  -2.485  0.00  0.00    +0.186 C 
ATOM     16  C   UNL     1      -0.044  -1.715  -3.006  0.00  0.00    +0.008 C 
ATOM     17  C   UNL     1      -0.084  -0.380  -3.157  0.00  0.00    -0.001 C 
ATOM     18  C   UNL     1      -1.176   0.512  -2.834  0.00  0.00    +0.008 C 
ATOM     19  C   UNL     1      -1.195   1.838  -3.070  0.00  0.00    +0.011 C 
ATOM     20  C   UNL     1      -0.128   2.667  -3.707  0.00  0.00    +0.049 C 
ATOM     21  C   UNL     1      -2.449   2.548  -2.731  0.00  0.00    +0.216 C 
ATOM     22  N   UNL     1      -2.759   3.446  -1.869  0.00  0.00    -0.209 NA
ATOM     23  C   UNL     1      -1.787   3.800  -0.962  0.00  0.00    +0.118 C 
ATOM     24  C   UNL     1      -1.128   4.963  -1.071  0.00  0.00    +0.081 C 
ATOM     25  C   UNL     1      -0.161   5.396  -0.108  0.00  0.00    +0.161 C 
ATOM     26  C   UNL     1      -1.529   2.907   0.239  0.00  0.00    +0.215 C 
ATOM     27  O   UNL     1      -2.084   1.814   0.305  0.00  0.00    -0.285 OA
ENDROOT
BRANCH   7  28
ATOM     28  O   UNL     1       1.998   0.892   2.115  0.00  0.00    -0.377 OA
ATOM     29  C   UNL     1       3.265   0.953   2.753  0.00  0.00    +0.194 C 
ENDBRANCH   7  28
BRANCH   8  30
ATOM     30  O   UNL     1       2.786  -2.045   2.464  0.00  0.00    -0.389 OA
ATOM     31  H   UNL     1       2.599  -2.288   3.387  0.00  0.00    +0.210 HD
ENDBRANCH   8  30
BRANCH  25  32
ATOM     32  O   UNL     1       0.491   6.563  -0.431  0.00  0.00    -0.503 OA
ATOM     33  H   UNL     1       1.192   6.676   0.239  0.00  0.00    +0.292 HD
ENDBRANCH  25  32
BRANCH   1  35
ATOM     34  C   UNL     1       0.340   6.072   2.897  0.00  0.00    +0.277 C 
ATOM     35  O   UNL     1       0.984   5.210   1.953  0.00  0.00    -0.491 OA
ENDBRANCH   1  35
BRANCH  15  36
ATOM     36  O   UNL     1      -2.410  -2.229  -2.624  0.00  0.00    -0.372 OA
ATOM     37  C   UNL     1      -2.941  -2.428  -3.928  0.00  0.00    +0.195 C 
ENDBRANCH  15  36
BRANCH  21  38
ATOM     38  O   UNL     1      -3.424   2.172  -3.579  0.00  0.00    -0.492 OA
ATOM     39  H   UNL     1      -4.229   2.639  -3.300  0.00  0.00    +0.294 HD
ENDBRANCH  21  38
BRANCH  14  40
ATOM     40  O   UNL     1      -1.811  -4.018  -0.569  0.00  0.00    -0.440 OA
BRANCH  40  41
ATOM     41  C   UNL     1      -2.187  -3.953   0.725  0.00  0.00    +0.398 C 
ATOM     42  N   UNL     1      -3.175  -4.847   0.954  0.00  0.00    -0.295 N 
ATOM     43  O   UNL     1      -1.732  -3.227   1.594  0.00  0.00    -0.227 OA
ATOM     44  H   UNL     1      -3.573  -4.909   1.878  0.00  0.00    +0.148 HD
ATOM     45  H   UNL     1      -3.529  -5.407   0.196  0.00  0.00    +0.148 HD
ENDBRANCH  40  41
ENDBRANCH  14  40
TORSDOF 8
