REMARK  Name = 
REMARK  14 active torsions:
REMARK  status: ('A' for Active; 'I' for Inactive)
REMARK    1  A    between atoms: C_1  and  O_2
REMARK    2  A    between atoms: O_2  and  C_3
REMARK    3  A    between atoms: C_6  and  C_7
REMARK    4  A    between atoms: C_9  and  O_10
REMARK    5  A    between atoms: O_10  and  C_11
REMARK    6  A    between atoms: C_12  and  O_13
REMARK    7  A    between atoms: C_14  and  C_15
REMARK    8  A    between atoms: C_17  and  C_18
REMARK    9  A    between atoms: C_19  and  O_20
REMARK   10  A    between atoms: O_20  and  C_21
REMARK   11  A    between atoms: C_24  and  O_25
REMARK   12  A    between atoms: O_25  and  C_26
REMARK   13  A    between atoms: C_30  and  C_31
REMARK   14  A    between atoms: C_37  and  O_38
REMARK                            x       y       z     vdW  Elec       q    Type
REMARK                         _______ _______ _______ _____ _____    ______ ____
ROOT
ATOM      1  C   UNL     1      -4.927  -0.471   0.109  0.00  0.00    +0.168 C 
ATOM      2  C   UNL     1      -3.935   0.429   0.232  0.00  0.00    +0.047 C 
ATOM      3  C   UNL     1      -3.807   1.675  -0.614  0.00  0.00    +0.046 C 
ATOM      4  C   UNL     1      -3.043   1.482  -1.951  0.00  0.00    -0.007 C 
ATOM      5  C   UNL     1      -2.991   2.822  -2.692  0.00  0.00    +0.008 C 
ATOM      6  C   UNL     1      -1.629   0.896  -1.725  0.00  0.00    +0.037 C 
ATOM      7  C   UNL     1      -0.794   0.644  -2.993  0.00  0.00    +0.147 C 
ATOM      8  C   UNL     1       0.579  -0.037  -2.710  0.00  0.00    +0.150 C 
ATOM      9  C   UNL     1       1.755   0.918  -2.351  0.00  0.00    +0.040 C 
ATOM     10  C   UNL     1       1.522   1.789  -1.123  0.00  0.00    +0.014 C 
ATOM     11  C   UNL     1       3.055   0.122  -2.383  0.00  0.00    -0.019 C 
ATOM     12  C   UNL     1       3.945  -0.289  -1.452  0.00  0.00    -0.033 C 
ATOM     13  C   UNL     1       5.116  -1.132  -1.928  0.00  0.00    +0.042 C 
ATOM     14  C   UNL     1       3.930  -0.008   0.056  0.00  0.00    +0.236 C 
ATOM     15  C   UNL     1       3.157  -1.063   0.932  0.00  0.00    +0.186 C 
ATOM     16  C   UNL     1       3.420  -0.840   2.405  0.00  0.00    +0.008 C 
ATOM     17  C   UNL     1       2.609  -0.443   3.396  0.00  0.00    -0.001 C 
ATOM     18  C   UNL     1       1.199  -0.135   3.367  0.00  0.00    +0.008 C 
ATOM     19  C   UNL     1       0.187  -1.014   3.228  0.00  0.00    +0.013 C 
ATOM     20  C   UNL     1       0.327  -2.485   2.984  0.00  0.00    +0.049 C 
ATOM     21  C   UNL     1      -1.197  -0.476   3.472  0.00  0.00    +0.264 C 
ATOM     22  O   UNL     1      -1.409   0.587   4.042  0.00  0.00    -0.268 OA
ATOM     23  N   UNL     1      -2.190  -1.354   3.128  0.00  0.00    -0.173 NA
ATOM     24  C   UNL     1      -3.006  -1.024   2.169  0.00  0.00    +0.107 C 
ATOM     25  C   UNL     1      -4.156  -1.924   1.924  0.00  0.00    +0.078 C 
ATOM     26  C   UNL     1      -5.047  -1.635   0.972  0.00  0.00    +0.161 C 
ATOM     27  C   UNL     1      -2.877   0.197   1.258  0.00  0.00    +0.209 C 
ATOM     28  O   UNL     1      -1.891   0.918   1.319  0.00  0.00    -0.285 OA
ENDROOT
BRANCH   7  29
ATOM     29  O   UNL     1      -1.580  -0.275  -3.788  0.00  0.00    -0.377 OA
ATOM     30  C   UNL     1      -1.423  -0.066  -5.187  0.00  0.00    +0.194 C 
ENDBRANCH   7  29
BRANCH   8  31
ATOM     31  O   UNL     1       0.431  -1.062  -1.713  0.00  0.00    -0.389 OA
ATOM     32  H   UNL     1      -0.301  -1.624  -2.031  0.00  0.00    +0.210 HD
ENDBRANCH   8  31
BRANCH  26  33
ATOM     33  O   UNL     1      -6.157  -2.427   0.760  0.00  0.00    -0.503 OA
ATOM     34  H   UNL     1      -6.197  -3.118   1.443  0.00  0.00    +0.292 HD
ENDBRANCH  26  33
BRANCH   1  36
ATOM     35  C   UNL     1      -5.835  -1.148  -1.936  0.00  0.00    +0.277 C 
ATOM     36  O   UNL     1      -5.938  -0.266  -0.817  0.00  0.00    -0.491 OA
ENDBRANCH   1  36
BRANCH  15  37
ATOM     37  O   UNL     1       3.628  -2.402   0.689  0.00  0.00    -0.372 OA
ATOM     38  C   UNL     1       2.714  -3.172  -0.080  0.00  0.00    +0.195 C 
ENDBRANCH  15  37
BRANCH  14  39
ATOM     39  O   UNL     1       5.321   0.066   0.478  0.00  0.00    -0.440 OA
BRANCH  39  40
ATOM     40  C   UNL     1       5.720   1.195   1.094  0.00  0.00    +0.398 C 
ATOM     41  N   UNL     1       7.024   1.088   1.432  0.00  0.00    -0.295 N 
ATOM     42  O   UNL     1       5.049   2.184   1.337  0.00  0.00    -0.227 OA
ATOM     43  H   UNL     1       7.472   1.857   1.906  0.00  0.00    +0.148 HD
ATOM     44  H   UNL     1       7.530   0.245   1.211  0.00  0.00    +0.148 HD
ENDBRANCH  39  40
ENDBRANCH  14  39
TORSDOF 7
