REMARK  Name = 
REMARK  15 active torsions:
REMARK  status: ('A' for Active; 'I' for Inactive)
REMARK    1  A    between atoms: C_1  and  O_2
REMARK    2  A    between atoms: O_2  and  C_3
REMARK    3  A    between atoms: C_6  and  C_7
REMARK    4  A    between atoms: C_9  and  O_10
REMARK    5  A    between atoms: O_10  and  C_11
REMARK    6  A    between atoms: C_12  and  O_13
REMARK    7  A    between atoms: C_14  and  C_15
REMARK    8  A    between atoms: C_17  and  C_18
REMARK    9  A    between atoms: C_19  and  O_20
REMARK   10  A    between atoms: O_20  and  C_21
REMARK   11  A    between atoms: C_24  and  O_25
REMARK   12  A    between atoms: O_25  and  C_26
REMARK   13  A    between atoms: C_30  and  C_31
REMARK   14  A    between atoms: C_32  and  O_33
REMARK   15  A    between atoms: C_37  and  O_38
REMARK                            x       y       z     vdW  Elec       q    Type
REMARK                         _______ _______ _______ _____ _____    ______ ____
ROOT
ATOM      1  C   UNL     1      -2.063  -2.039   4.076  0.00  0.00    +0.172 C 
ATOM      2  C   UNL     1      -1.768  -1.720   2.675  0.00  0.00    +0.065 C 
ATOM      3  C   UNL     1      -2.466  -0.778   2.002  0.00  0.00    -0.008 C 
ATOM      4  C   UNL     1      -2.299  -0.255   0.585  0.00  0.00    +0.012 C 
ATOM      5  C   UNL     1      -3.479  -0.775  -0.240  0.00  0.00    +0.012 C 
ATOM      6  C   UNL     1      -2.241   1.285   0.607  0.00  0.00    +0.041 C 
ATOM      7  C   UNL     1      -1.230   1.946  -0.361  0.00  0.00    +0.147 C 
ATOM      8  C   UNL     1      -1.527   1.830  -1.880  0.00  0.00    +0.150 C 
ATOM      9  C   UNL     1      -0.966   0.560  -2.568  0.00  0.00    +0.040 C 
ATOM     10  C   UNL     1      -1.535   0.342  -3.978  0.00  0.00    +0.014 C 
ATOM     11  C   UNL     1       0.554   0.465  -2.534  0.00  0.00    -0.019 C 
ATOM     12  C   UNL     1       1.485   1.191  -3.193  0.00  0.00    -0.033 C 
ATOM     13  C   UNL     1       1.170   2.334  -4.130  0.00  0.00    +0.042 C 
ATOM     14  C   UNL     1       2.997   0.937  -3.100  0.00  0.00    +0.236 C 
ATOM     15  C   UNL     1       3.571   0.123  -1.894  0.00  0.00    +0.186 C 
ATOM     16  C   UNL     1       3.289   0.783  -0.563  0.00  0.00    +0.008 C 
ATOM     17  C   UNL     1       2.901   0.216   0.592  0.00  0.00    -0.001 C 
ATOM     18  C   UNL     1       2.659  -1.194   0.808  0.00  0.00    +0.008 C 
ATOM     19  C   UNL     1       2.496  -1.785   2.007  0.00  0.00    +0.011 C 
ATOM     20  C   UNL     1       2.567  -1.139   3.353  0.00  0.00    +0.049 C 
ATOM     21  C   UNL     1       2.272  -3.252   1.992  0.00  0.00    +0.216 C 
ATOM     22  N   UNL     1       1.322  -4.005   2.415  0.00  0.00    -0.209 NA
ATOM     23  C   UNL     1       0.203  -3.379   2.916  0.00  0.00    +0.118 C 
ATOM     24  C   UNL     1      -0.184  -3.577   4.185  0.00  0.00    +0.081 C 
ATOM     25  C   UNL     1      -1.345  -2.952   4.749  0.00  0.00    +0.161 C 
ATOM     26  C   UNL     1      -0.660  -2.518   2.010  0.00  0.00    +0.215 C 
ATOM     27  O   UNL     1      -0.445  -2.496   0.800  0.00  0.00    -0.285 OA
ENDROOT
BRANCH   7  28
ATOM     28  O   UNL     1      -1.303   3.369  -0.073  0.00  0.00    -0.377 OA
ATOM     29  C   UNL     1      -0.256   3.805   0.787  0.00  0.00    +0.194 C 
ENDBRANCH   7  28
BRANCH   8  30
ATOM     30  O   UNL     1      -2.935   1.970  -2.111  0.00  0.00    -0.389 OA
ATOM     31  H   UNL     1      -3.181   2.818  -1.694  0.00  0.00    +0.210 HD
ENDBRANCH   8  30
BRANCH  25  32
ATOM     32  O   UNL     1      -1.640  -3.342   6.033  0.00  0.00    -0.503 OA
ATOM     33  H   UNL     1      -2.517  -2.967   6.240  0.00  0.00    +0.292 HD
ENDBRANCH  25  32
BRANCH   1  35
ATOM     34  C   UNL     1      -2.766  -0.262   5.394  0.00  0.00    +0.277 C 
ATOM     35  O   UNL     1      -3.161  -1.430   4.666  0.00  0.00    -0.491 OA
ENDBRANCH   1  35
BRANCH  15  36
ATOM     36  O   UNL     1       5.007   0.102  -2.041  0.00  0.00    -0.372 OA
ATOM     37  C   UNL     1       5.607  -1.070  -1.505  0.00  0.00    +0.195 C 
ENDBRANCH  15  36
BRANCH  21  38
ATOM     38  O   UNL     1       3.336  -3.876   1.456  0.00  0.00    -0.492 OA
ATOM     39  H   UNL     1       3.137  -4.827   1.465  0.00  0.00    +0.294 HD
ENDBRANCH  21  38
BRANCH  14  40
ATOM     40  O   UNL     1       3.338   0.213  -4.311  0.00  0.00    -0.440 OA
BRANCH  40  41
ATOM     41  C   UNL     1       4.291   0.760  -5.092  0.00  0.00    +0.398 C 
ATOM     42  N   UNL     1       4.549  -0.062  -6.133  0.00  0.00    -0.295 N 
ATOM     43  O   UNL     1       4.847   1.835  -4.940  0.00  0.00    -0.227 OA
ATOM     44  H   UNL     1       5.242   0.212  -6.811  0.00  0.00    +0.148 HD
ATOM     45  H   UNL     1       4.053  -0.935  -6.218  0.00  0.00    +0.148 HD
ENDBRANCH  40  41
ENDBRANCH  14  40
TORSDOF 8
