REMARK  Name = 
REMARK  14 active torsions:
REMARK  status: ('A' for Active; 'I' for Inactive)
REMARK    1  A    between atoms: C_1  and  O_2
REMARK    2  A    between atoms: O_2  and  C_3
REMARK    3  A    between atoms: C_6  and  C_7
REMARK    4  A    between atoms: C_9  and  O_10
REMARK    5  A    between atoms: O_10  and  C_11
REMARK    6  A    between atoms: C_12  and  O_13
REMARK    7  A    between atoms: C_14  and  C_15
REMARK    8  A    between atoms: C_17  and  C_18
REMARK    9  A    between atoms: C_19  and  O_20
REMARK   10  A    between atoms: O_20  and  C_21
REMARK   11  A    between atoms: C_24  and  O_25
REMARK   12  A    between atoms: O_25  and  C_26
REMARK   13  A    between atoms: C_30  and  C_31
REMARK   14  A    between atoms: C_37  and  O_38
REMARK                            x       y       z     vdW  Elec       q    Type
REMARK                         _______ _______ _______ _____ _____    ______ ____
ROOT
ATOM      1  C   UNL     1      -3.795   1.131   2.800  0.00  0.00    +0.168 C 
ATOM      2  C   UNL     1      -2.478   0.868   2.719  0.00  0.00    +0.047 C 
ATOM      3  C   UNL     1      -1.769  -0.224   3.493  0.00  0.00    +0.046 C 
ATOM      4  C   UNL     1      -1.681  -1.627   2.828  0.00  0.00    -0.007 C 
ATOM      5  C   UNL     1      -3.053  -2.307   2.764  0.00  0.00    +0.008 C 
ATOM      6  C   UNL     1      -1.014  -1.573   1.435  0.00  0.00    +0.037 C 
ATOM      7  C   UNL     1      -0.544  -2.931   0.881  0.00  0.00    +0.147 C 
ATOM      8  C   UNL     1      -0.183  -2.872  -0.644  0.00  0.00    +0.150 C 
ATOM      9  C   UNL     1       0.871  -1.834  -1.171  0.00  0.00    +0.040 C 
ATOM     10  C   UNL     1       0.297  -0.413  -1.152  0.00  0.00    +0.014 C 
ATOM     11  C   UNL     1       2.241  -1.960  -0.527  0.00  0.00    -0.019 C 
ATOM     12  C   UNL     1       3.399  -1.326  -0.823  0.00  0.00    -0.033 C 
ATOM     13  C   UNL     1       4.653  -1.698  -0.063  0.00  0.00    +0.042 C 
ATOM     14  C   UNL     1       3.578  -0.266  -1.908  0.00  0.00    +0.236 C 
ATOM     15  C   UNL     1       4.090   1.127  -1.404  0.00  0.00    +0.186 C 
ATOM     16  C   UNL     1       3.372   1.636  -0.169  0.00  0.00    +0.008 C 
ATOM     17  C   UNL     1       2.289   2.415  -0.005  0.00  0.00    -0.001 C 
ATOM     18  C   UNL     1       1.445   2.977  -1.035  0.00  0.00    +0.008 C 
ATOM     19  C   UNL     1       0.269   3.618  -0.874  0.00  0.00    +0.013 C 
ATOM     20  C   UNL     1      -0.509   4.112  -2.061  0.00  0.00    +0.049 C 
ATOM     21  C   UNL     1      -0.338   3.906   0.469  0.00  0.00    +0.264 C 
ATOM     22  O   UNL     1       0.310   4.274   1.439  0.00  0.00    -0.268 OA
ATOM     23  N   UNL     1      -1.708   3.853   0.449  0.00  0.00    -0.173 NA
ATOM     24  C   UNL     1      -2.309   2.917   1.128  0.00  0.00    +0.107 C 
ATOM     25  C   UNL     1      -3.788   2.967   1.177  0.00  0.00    +0.078 C 
ATOM     26  C   UNL     1      -4.456   2.125   1.970  0.00  0.00    +0.161 C 
ATOM     27  C   UNL     1      -1.638   1.751   1.856  0.00  0.00    +0.209 C 
ATOM     28  O   UNL     1      -0.448   1.529   1.695  0.00  0.00    -0.285 OA
ENDROOT
BRANCH   7  29
ATOM     29  O   UNL     1       0.530  -3.354   1.738  0.00  0.00    -0.377 OA
ATOM     30  C   UNL     1       0.766  -4.756   1.729  0.00  0.00    +0.194 C 
ENDBRANCH   7  29
BRANCH   8  31
ATOM     31  O   UNL     1       0.163  -4.196  -1.096  0.00  0.00    -0.389 OA
ATOM     32  H   UNL     1       0.583  -4.113  -1.971  0.00  0.00    +0.210 HD
ENDBRANCH   8  31
BRANCH  26  33
ATOM     33  O   UNL     1      -5.833   2.144   2.050  0.00  0.00    -0.503 OA
ATOM     34  H   UNL     1      -6.186   2.810   1.437  0.00  0.00    +0.292 HD
ENDBRANCH  26  33
BRANCH   1  36
ATOM     35  C   UNL     1      -4.952   1.015   4.814  0.00  0.00    +0.277 C 
ATOM     36  O   UNL     1      -4.622   0.352   3.593  0.00  0.00    -0.491 OA
ENDBRANCH   1  36
BRANCH  15  37
ATOM     37  O   UNL     1       3.993   2.063  -2.494  0.00  0.00    -0.372 OA
ATOM     38  C   UNL     1       4.923   3.134  -2.388  0.00  0.00    +0.195 C 
ENDBRANCH  15  37
BRANCH  14  39
ATOM     39  O   UNL     1       4.572  -0.769  -2.842  0.00  0.00    -0.440 OA
BRANCH  39  40
ATOM     40  C   UNL     1       4.097  -1.418  -3.924  0.00  0.00    +0.398 C 
ATOM     41  N   UNL     1       5.127  -1.803  -4.709  0.00  0.00    -0.295 N 
ATOM     42  O   UNL     1       2.931  -1.653  -4.197  0.00  0.00    -0.227 OA
ATOM     43  H   UNL     1       4.931  -2.303  -5.563  0.00  0.00    +0.148 HD
ATOM     44  H   UNL     1       6.073  -1.583  -4.441  0.00  0.00    +0.148 HD
ENDBRANCH  39  40
ENDBRANCH  14  39
TORSDOF 7
