REMARK  Name = 
REMARK  15 active torsions:
REMARK  status: ('A' for Active; 'I' for Inactive)
REMARK    1  A    between atoms: C_1  and  O_2
REMARK    2  A    between atoms: O_2  and  C_3
REMARK    3  A    between atoms: C_6  and  C_7
REMARK    4  A    between atoms: C_9  and  O_10
REMARK    5  A    between atoms: O_10  and  C_11
REMARK    6  A    between atoms: C_12  and  O_13
REMARK    7  A    between atoms: C_14  and  C_15
REMARK    8  A    between atoms: C_17  and  C_18
REMARK    9  A    between atoms: C_19  and  O_20
REMARK   10  A    between atoms: O_20  and  C_21
REMARK   11  A    between atoms: C_21  and  O_23
REMARK   12  A    between atoms: C_24  and  O_25
REMARK   13  A    between atoms: O_25  and  C_26
REMARK   14  A    between atoms: C_30  and  C_31
REMARK   15  A    between atoms: C_32  and  O_33
REMARK                            x       y       z     vdW  Elec       q    Type
REMARK                         _______ _______ _______ _____ _____    ______ ____
ROOT
ATOM      1  C   UNL     1      -1.239  -2.986  -0.462  0.00  0.00    +0.173 C 
ATOM      2  C   UNL     1      -0.422  -3.032   0.605  0.00  0.00    +0.047 C 
ATOM      3  C   UNL     1       0.956  -3.661   0.570  0.00  0.00    +0.046 C 
ATOM      4  C   UNL     1       2.161  -2.704   0.741  0.00  0.00    -0.007 C 
ATOM      5  C   UNL     1       3.404  -3.555   1.043  0.00  0.00    +0.008 C 
ATOM      6  C   UNL     1       2.368  -1.802  -0.507  0.00  0.00    +0.037 C 
ATOM      7  C   UNL     1       3.580  -0.854  -0.393  0.00  0.00    +0.147 C 
ATOM      8  C   UNL     1       3.909  -0.093  -1.719  0.00  0.00    +0.150 C 
ATOM      9  C   UNL     1       2.965   1.048  -2.233  0.00  0.00    +0.040 C 
ATOM     10  C   UNL     1       1.833   0.467  -3.072  0.00  0.00    +0.014 C 
ATOM     11  C   UNL     1       2.644   2.072  -1.162  0.00  0.00    -0.019 C 
ATOM     12  C   UNL     1       1.532   2.670  -0.680  0.00  0.00    -0.033 C 
ATOM     13  C   UNL     1       1.713   3.621   0.494  0.00  0.00    +0.042 C 
ATOM     14  C   UNL     1       0.088   2.539  -1.177  0.00  0.00    +0.236 C 
ATOM     15  C   UNL     1      -0.811   1.439  -0.497  0.00  0.00    +0.186 C 
ATOM     16  C   UNL     1      -0.381   1.002   0.885  0.00  0.00    +0.008 C 
ATOM     17  C   UNL     1      -1.124   0.909   1.999  0.00  0.00    -0.001 C 
ATOM     18  C   UNL     1      -2.518   1.266   2.096  0.00  0.00    +0.008 C 
ATOM     19  C   UNL     1      -3.452   0.646   2.838  0.00  0.00    +0.011 C 
ATOM     20  C   UNL     1      -4.869   1.139   2.904  0.00  0.00    +0.049 C 
ATOM     21  C   UNL     1      -3.182  -0.585   3.622  0.00  0.00    +0.216 C 
ATOM     22  N   UNL     1      -2.724  -1.753   3.363  0.00  0.00    -0.209 NA
ATOM     23  C   UNL     1      -2.298  -2.072   2.091  0.00  0.00    +0.118 C 
ATOM     24  C   UNL     1      -3.091  -2.058   1.017  0.00  0.00    +0.086 C 
ATOM     25  C   UNL     1      -2.629  -2.445  -0.322  0.00  0.00    +0.223 C 
ATOM     26  O   UNL     1      -3.411  -2.341  -1.264  0.00  0.00    -0.284 OA
ATOM     27  C   UNL     1      -0.888  -2.575   1.948  0.00  0.00    +0.211 C 
ATOM     28  O   UNL     1      -0.142  -2.644   2.924  0.00  0.00    -0.285 OA
ENDROOT
BRANCH   7  29
ATOM     29  O   UNL     1       3.333   0.002   0.731  0.00  0.00    -0.377 OA
ATOM     30  C   UNL     1       4.511   0.411   1.411  0.00  0.00    +0.194 C 
ENDBRANCH   7  29
BRANCH   8  31
ATOM     31  O   UNL     1       5.249   0.443  -1.595  0.00  0.00    -0.389 OA
ATOM     32  H   UNL     1       5.484   0.846  -2.448  0.00  0.00    +0.210 HD
ENDBRANCH   8  31
BRANCH  21  33
ATOM     33  O   UNL     1      -3.549  -0.375   4.899  0.00  0.00    -0.492 OA
ATOM     34  H   UNL     1      -3.319  -1.183   5.391  0.00  0.00    +0.294 HD
ENDBRANCH  21  33
BRANCH   1  36
ATOM     35  C   UNL     1      -1.696  -4.183  -2.469  0.00  0.00    +0.277 C 
ATOM     36  O   UNL     1      -0.765  -3.437  -1.691  0.00  0.00    -0.491 OA
ENDBRANCH   1  36
BRANCH  15  37
ATOM     37  O   UNL     1      -0.838   0.213  -1.251  0.00  0.00    -0.372 OA
ATOM     38  C   UNL     1      -1.728   0.253  -2.361  0.00  0.00    +0.195 C 
ENDBRANCH  15  37
BRANCH  14  39
ATOM     39  O   UNL     1      -0.528   3.846  -0.973  0.00  0.00    -0.439 OA
BRANCH  39  40
ATOM     40  C   UNL     1      -1.555   4.205  -1.755  0.00  0.00    +0.381 C 
ATOM     41  N   UNL     1      -2.106   3.485  -2.655  0.00  0.00    -0.233 NA
ATOM     42  H   UNL     1      -2.867   3.987  -3.111  0.00  0.00    +0.193 HD
BRANCH  40  43
ATOM     43  O   UNL     1      -1.966   5.443  -1.472  0.00  0.00    -0.466 OA
ATOM     44  H   UNL     1      -2.694   5.717  -2.042  0.00  0.00    +0.297 HD
ENDBRANCH  40  43
ENDBRANCH  39  40
ENDBRANCH  14  39
TORSDOF 8
