REMARK  Name = 
REMARK  14 active torsions:
REMARK  status: ('A' for Active; 'I' for Inactive)
REMARK    1  A    between atoms: C_1  and  O_2
REMARK    2  A    between atoms: O_2  and  C_3
REMARK    3  A    between atoms: C_6  and  C_7
REMARK    4  A    between atoms: C_9  and  O_10
REMARK    5  A    between atoms: O_10  and  C_11
REMARK    6  A    between atoms: C_12  and  O_13
REMARK    7  A    between atoms: C_14  and  C_15
REMARK    8  A    between atoms: C_17  and  C_18
REMARK    9  A    between atoms: C_19  and  O_20
REMARK   10  A    between atoms: O_20  and  C_21
REMARK   11  A    between atoms: C_24  and  O_25
REMARK   12  A    between atoms: O_25  and  C_26
REMARK   13  A    between atoms: C_30  and  C_31
REMARK   14  A    between atoms: C_37  and  O_38
REMARK                            x       y       z     vdW  Elec       q    Type
REMARK                         _______ _______ _______ _____ _____    ______ ____
ROOT
ATOM      1  C   UNL     1      -0.503  -3.168   4.318  0.00  0.00    +0.172 C 
ATOM      2  C   UNL     1      -0.380  -1.854   3.681  0.00  0.00    +0.065 C 
ATOM      3  C   UNL     1      -0.786  -0.716   4.290  0.00  0.00    -0.008 C 
ATOM      4  C   UNL     1      -0.774   0.733   3.819  0.00  0.00    +0.012 C 
ATOM      5  C   UNL     1       0.636   1.315   3.951  0.00  0.00    +0.012 C 
ATOM      6  C   UNL     1      -1.514   0.952   2.472  0.00  0.00    +0.041 C 
ATOM      7  C   UNL     1      -1.064   2.170   1.650  0.00  0.00    +0.147 C 
ATOM      8  C   UNL     1      -1.699   2.224   0.229  0.00  0.00    +0.150 C 
ATOM      9  C   UNL     1      -1.219   1.096  -0.730  0.00  0.00    +0.040 C 
ATOM     10  C   UNL     1      -2.187  -0.089  -0.855  0.00  0.00    +0.014 C 
ATOM     11  C   UNL     1      -1.022   1.666  -2.129  0.00  0.00    -0.019 C 
ATOM     12  C   UNL     1       0.131   1.945  -2.779  0.00  0.00    -0.033 C 
ATOM     13  C   UNL     1       0.054   2.501  -4.181  0.00  0.00    +0.042 C 
ATOM     14  C   UNL     1       1.537   1.777  -2.190  0.00  0.00    +0.236 C 
ATOM     15  C   UNL     1       2.355   0.617  -2.867  0.00  0.00    +0.186 C 
ATOM     16  C   UNL     1       2.797  -0.402  -1.840  0.00  0.00    +0.008 C 
ATOM     17  C   UNL     1       2.400  -1.675  -1.685  0.00  0.00    -0.001 C 
ATOM     18  C   UNL     1       1.462  -2.386  -2.526  0.00  0.00    +0.008 C 
ATOM     19  C   UNL     1       0.682  -3.429  -2.178  0.00  0.00    +0.012 C 
ATOM     20  C   UNL     1      -0.169  -4.145  -3.190  0.00  0.00    +0.049 C 
ATOM     21  C   UNL     1       0.538  -3.986  -0.790  0.00  0.00    +0.244 C 
ATOM     22  O   UNL     1       0.447  -5.196  -0.620  0.00  0.00    -0.270 OA
ATOM     23  N   UNL     1       0.427  -3.022   0.180  0.00  0.00    -0.279 N 
ATOM     24  C   UNL     1       0.172  -3.157   1.529  0.00  0.00    +0.085 C 
ATOM     25  C   UNL     1      -0.105  -4.291   2.188  0.00  0.00    +0.076 C 
ATOM     26  C   UNL     1      -0.391  -4.298   3.600  0.00  0.00    +0.161 C 
ATOM     27  C   UNL     1       0.205  -1.856   2.289  0.00  0.00    +0.211 C 
ATOM     28  O   UNL     1       0.682  -0.867   1.734  0.00  0.00    -0.285 OA
ATOM     29  H   UNL     1       0.544  -2.052  -0.106  0.00  0.00    +0.155 HD
ENDROOT
BRANCH   7  30
ATOM     30  O   UNL     1      -1.487   3.332   2.397  0.00  0.00    -0.377 OA
ATOM     31  C   UNL     1      -0.700   4.489   2.132  0.00  0.00    +0.194 C 
ENDBRANCH   7  30
BRANCH   8  32
ATOM     32  O   UNL     1      -3.129   2.256   0.331  0.00  0.00    -0.389 OA
ATOM     33  H   UNL     1      -3.321   2.857   1.078  0.00  0.00    +0.210 HD
ENDBRANCH   8  32
BRANCH  26  34
ATOM     34  O   UNL     1      -0.572  -5.547   4.147  0.00  0.00    -0.503 OA
ATOM     35  H   UNL     1      -0.872  -5.405   5.064  0.00  0.00    +0.292 HD
ENDBRANCH  26  34
BRANCH   1  37
ATOM     36  C   UNL     1       0.393  -3.129   6.454  0.00  0.00    +0.277 C 
ATOM     37  O   UNL     1      -0.802  -3.219   5.671  0.00  0.00    -0.491 OA
ENDBRANCH   1  37
BRANCH  15  38
ATOM     38  O   UNL     1       3.574   1.055  -3.488  0.00  0.00    -0.372 OA
ATOM     39  C   UNL     1       3.410   1.509  -4.822  0.00  0.00    +0.195 C 
ENDBRANCH  15  38
BRANCH  14  40
ATOM     40  O   UNL     1       2.202   3.053  -2.316  0.00  0.00    -0.440 OA
BRANCH  40  41
ATOM     41  C   UNL     1       3.155   3.303  -1.394  0.00  0.00    +0.398 C 
ATOM     42  N   UNL     1       3.749   4.487  -1.660  0.00  0.00    -0.295 N 
ATOM     43  O   UNL     1       3.453   2.605  -0.439  0.00  0.00    -0.227 OA
ATOM     44  H   UNL     1       3.471   5.020  -2.468  0.00  0.00    +0.148 HD
ATOM     45  H   UNL     1       4.496   4.803  -1.061  0.00  0.00    +0.148 HD
ENDBRANCH  40  41
ENDBRANCH  14  40
TORSDOF 7
