REMARK  Name = 
REMARK  14 active torsions:
REMARK  status: ('A' for Active; 'I' for Inactive)
REMARK    1  A    between atoms: C_1  and  O_2
REMARK    2  A    between atoms: O_2  and  C_3
REMARK    3  A    between atoms: C_6  and  C_7
REMARK    4  A    between atoms: C_9  and  O_10
REMARK    5  A    between atoms: O_10  and  C_11
REMARK    6  A    between atoms: C_12  and  O_13
REMARK    7  A    between atoms: C_14  and  C_15
REMARK    8  A    between atoms: C_17  and  C_18
REMARK    9  A    between atoms: C_19  and  O_20
REMARK   10  A    between atoms: O_20  and  C_21
REMARK   11  A    between atoms: C_24  and  O_25
REMARK   12  A    between atoms: O_25  and  C_26
REMARK   13  A    between atoms: C_30  and  C_31
REMARK   14  A    between atoms: C_37  and  O_38
REMARK                            x       y       z     vdW  Elec       q    Type
REMARK                         _______ _______ _______ _____ _____    ______ ____
ROOT
ATOM      1  C   UNL     1       4.254  -0.675  -1.920  0.00  0.00    +0.168 C 
ATOM      2  C   UNL     1       3.267  -0.985  -1.058  0.00  0.00    +0.047 C 
ATOM      3  C   UNL     1       3.416  -0.938   0.447  0.00  0.00    +0.046 C 
ATOM      4  C   UNL     1       2.930   0.358   1.164  0.00  0.00    -0.007 C 
ATOM      5  C   UNL     1       3.107   1.617   0.310  0.00  0.00    +0.008 C 
ATOM      6  C   UNL     1       1.502   0.184   1.738  0.00  0.00    +0.037 C 
ATOM      7  C   UNL     1       0.875   1.417   2.426  0.00  0.00    +0.147 C 
ATOM      8  C   UNL     1      -0.225   1.045   3.459  0.00  0.00    +0.150 C 
ATOM      9  C   UNL     1      -1.325   0.064   3.001  0.00  0.00    +0.040 C 
ATOM     10  C   UNL     1      -2.392  -0.121   4.093  0.00  0.00    +0.014 C 
ATOM     11  C   UNL     1      -2.002   0.304   1.671  0.00  0.00    -0.019 C 
ATOM     12  C   UNL     1      -2.674   1.364   1.171  0.00  0.00    -0.033 C 
ATOM     13  C   UNL     1      -2.856   2.682   1.866  0.00  0.00    +0.042 C 
ATOM     14  C   UNL     1      -3.424   1.252  -0.172  0.00  0.00    +0.236 C 
ATOM     15  C   UNL     1      -2.543   1.577  -1.428  0.00  0.00    +0.186 C 
ATOM     16  C   UNL     1      -3.211   1.189  -2.738  0.00  0.00    +0.008 C 
ATOM     17  C   UNL     1      -2.862   0.312  -3.698  0.00  0.00    -0.001 C 
ATOM     18  C   UNL     1      -1.705  -0.558  -3.737  0.00  0.00    +0.008 C 
ATOM     19  C   UNL     1      -1.521  -1.683  -3.016  0.00  0.00    +0.013 C 
ATOM     20  C   UNL     1      -2.532  -2.288  -2.090  0.00  0.00    +0.049 C 
ATOM     21  C   UNL     1      -0.251  -2.484  -3.127  0.00  0.00    +0.264 C 
ATOM     22  O   UNL     1      -0.159  -3.625  -2.690  0.00  0.00    -0.268 OA
ATOM     23  N   UNL     1       0.755  -1.867  -3.818  0.00  0.00    -0.173 NA
ATOM     24  C   UNL     1       1.792  -1.441  -3.156  0.00  0.00    +0.107 C 
ATOM     25  C   UNL     1       2.910  -0.893  -3.953  0.00  0.00    +0.078 C 
ATOM     26  C   UNL     1       4.043  -0.547  -3.346  0.00  0.00    +0.161 C 
ATOM     27  C   UNL     1       1.954  -1.421  -1.626  0.00  0.00    +0.209 C 
ATOM     28  O   UNL     1       1.024  -1.718  -0.892  0.00  0.00    -0.285 OA
ENDROOT
BRANCH   7  29
ATOM     29  O   UNL     1       1.919   2.118   3.143  0.00  0.00    -0.377 OA
ATOM     30  C   UNL     1       1.629   3.496   3.355  0.00  0.00    +0.194 C 
ENDBRANCH   7  29
BRANCH   8  31
ATOM     31  O   UNL     1       0.431   0.474   4.615  0.00  0.00    -0.389 OA
ATOM     32  H   UNL     1       1.298   0.924   4.666  0.00  0.00    +0.210 HD
ENDBRANCH   8  31
BRANCH  26  33
ATOM     33  O   UNL     1       5.078   0.002  -4.075  0.00  0.00    -0.503 OA
ATOM     34  H   UNL     1       5.734   0.330  -3.429  0.00  0.00    +0.292 HD
ENDBRANCH  26  33
BRANCH   1  36
ATOM     35  C   UNL     1       6.391  -1.428  -1.432  0.00  0.00    +0.277 C 
ATOM     36  O   UNL     1       5.517  -0.294  -1.497  0.00  0.00    -0.491 OA
ENDBRANCH   1  36
BRANCH  15  37
ATOM     37  O   UNL     1      -1.241   0.989  -1.323  0.00  0.00    -0.372 OA
ATOM     38  C   UNL     1      -0.225   1.828  -1.854  0.00  0.00    +0.195 C 
ENDBRANCH  15  37
BRANCH  14  39
ATOM     39  O   UNL     1      -4.003  -0.072  -0.229  0.00  0.00    -0.440 OA
BRANCH  39  40
ATOM     40  C   UNL     1      -5.288  -0.144  -0.629  0.00  0.00    +0.398 C 
ATOM     41  N   UNL     1      -5.732  -1.416  -0.525  0.00  0.00    -0.295 N 
ATOM     42  O   UNL     1      -5.986   0.778  -1.023  0.00  0.00    -0.227 OA
ATOM     43  H   UNL     1      -5.112  -2.133  -0.181  0.00  0.00    +0.148 HD
ATOM     44  H   UNL     1      -6.681  -1.633  -0.786  0.00  0.00    +0.148 HD
ENDBRANCH  39  40
ENDBRANCH  14  39
TORSDOF 7
