REMARK  Name = 
REMARK  15 active torsions:
REMARK  status: ('A' for Active; 'I' for Inactive)
REMARK    1  A    between atoms: C_1  and  O_2
REMARK    2  A    between atoms: O_2  and  C_3
REMARK    3  A    between atoms: C_6  and  C_7
REMARK    4  A    between atoms: C_9  and  O_10
REMARK    5  A    between atoms: O_10  and  C_11
REMARK    6  A    between atoms: C_12  and  O_13
REMARK    7  A    between atoms: C_14  and  C_15
REMARK    8  A    between atoms: C_17  and  C_18
REMARK    9  A    between atoms: C_19  and  O_20
REMARK   10  A    between atoms: O_20  and  C_21
REMARK   11  A    between atoms: C_24  and  O_25
REMARK   12  A    between atoms: O_25  and  C_26
REMARK   13  A    between atoms: C_30  and  C_31
REMARK   14  A    between atoms: C_32  and  O_33
REMARK   15  A    between atoms: C_37  and  O_38
REMARK                            x       y       z     vdW  Elec       q    Type
REMARK                         _______ _______ _______ _____ _____    ______ ____
ROOT
ATOM      1  C   UNL     1       3.866  -1.407   2.457  0.00  0.00    +0.172 C 
ATOM      2  C   UNL     1       2.547  -1.932   2.083  0.00  0.00    +0.065 C 
ATOM      3  C   UNL     1       2.388  -3.213   1.671  0.00  0.00    -0.008 C 
ATOM      4  C   UNL     1       1.178  -4.009   1.187  0.00  0.00    +0.012 C 
ATOM      5  C   UNL     1       0.085  -4.176   2.242  0.00  0.00    +0.012 C 
ATOM      6  C   UNL     1       0.763  -3.610  -0.256  0.00  0.00    +0.041 C 
ATOM      7  C   UNL     1      -0.699  -3.173  -0.481  0.00  0.00    +0.147 C 
ATOM      8  C   UNL     1      -0.901  -2.323  -1.782  0.00  0.00    +0.150 C 
ATOM      9  C   UNL     1       0.013  -1.069  -1.837  0.00  0.00    +0.040 C 
ATOM     10  C   UNL     1       1.176  -1.219  -2.837  0.00  0.00    +0.014 C 
ATOM     11  C   UNL     1      -0.665   0.270  -2.102  0.00  0.00    -0.019 C 
ATOM     12  C   UNL     1      -1.421   0.985  -1.239  0.00  0.00    -0.033 C 
ATOM     13  C   UNL     1      -2.044   0.427   0.015  0.00  0.00    +0.042 C 
ATOM     14  C   UNL     1      -1.667   2.491  -1.386  0.00  0.00    +0.236 C 
ATOM     15  C   UNL     1      -0.628   3.327  -2.207  0.00  0.00    +0.186 C 
ATOM     16  C   UNL     1       0.861   3.237  -1.928  0.00  0.00    +0.008 C 
ATOM     17  C   UNL     1       1.593   2.744  -0.915  0.00  0.00    -0.001 C 
ATOM     18  C   UNL     1       1.133   2.178   0.329  0.00  0.00    +0.008 C 
ATOM     19  C   UNL     1       0.758   2.878   1.413  0.00  0.00    +0.011 C 
ATOM     20  C   UNL     1       0.758   4.379   1.502  0.00  0.00    +0.049 C 
ATOM     21  C   UNL     1       0.239   2.153   2.607  0.00  0.00    +0.216 C 
ATOM     22  N   UNL     1       0.548   1.108   3.280  0.00  0.00    -0.209 NA
ATOM     23  C   UNL     1       1.633   0.344   2.927  0.00  0.00    +0.118 C 
ATOM     24  C   UNL     1       2.877   0.631   3.341  0.00  0.00    +0.081 C 
ATOM     25  C   UNL     1       4.000  -0.217   3.062  0.00  0.00    +0.161 C 
ATOM     26  C   UNL     1       1.395  -0.952   2.172  0.00  0.00    +0.215 C 
ATOM     27  O   UNL     1       0.310  -1.159   1.638  0.00  0.00    -0.285 OA
ENDROOT
BRANCH   7  28
ATOM     28  O   UNL     1      -1.483  -4.384  -0.592  0.00  0.00    -0.377 OA
ATOM     29  C   UNL     1      -2.843  -4.199  -0.211  0.00  0.00    +0.194 C 
ENDBRANCH   7  28
BRANCH   8  30
ATOM     30  O   UNL     1      -0.703  -3.173  -2.924  0.00  0.00    -0.389 OA
ATOM     31  H   UNL     1      -1.072  -4.040  -2.662  0.00  0.00    +0.210 HD
ENDBRANCH   8  30
BRANCH  25  32
ATOM     32  O   UNL     1       5.212   0.274   3.486  0.00  0.00    -0.503 OA
ATOM     33  H   UNL     1       5.860  -0.444   3.356  0.00  0.00    +0.292 HD
ENDBRANCH  25  32
BRANCH   1  35
ATOM     34  C   UNL     1       5.486  -1.966   0.893  0.00  0.00    +0.277 C 
ATOM     35  O   UNL     1       4.982  -2.196   2.213  0.00  0.00    -0.491 OA
ENDBRANCH   1  35
BRANCH  15  36
ATOM     36  O   UNL     1      -0.936   4.731  -2.068  0.00  0.00    -0.372 OA
ATOM     37  C   UNL     1      -1.423   5.318  -3.266  0.00  0.00    +0.195 C 
ENDBRANCH  15  36
BRANCH  21  38
ATOM     38  O   UNL     1      -0.841   2.813   3.068  0.00  0.00    -0.492 OA
ATOM     39  H   UNL     1      -1.183   2.305   3.821  0.00  0.00    +0.294 HD
ENDBRANCH  21  38
BRANCH  14  40
ATOM     40  O   UNL     1      -2.957   2.600  -2.041  0.00  0.00    -0.440 OA
BRANCH  40  41
ATOM     41  C   UNL     1      -3.886   3.363  -1.432  0.00  0.00    +0.398 C 
ATOM     42  N   UNL     1      -5.015   3.377  -2.176  0.00  0.00    -0.295 N 
ATOM     43  O   UNL     1      -3.782   3.960  -0.375  0.00  0.00    -0.227 OA
ATOM     44  H   UNL     1      -5.061   2.848  -3.032  0.00  0.00    +0.148 HD
ATOM     45  H   UNL     1      -5.809   3.902  -1.844  0.00  0.00    +0.148 HD
ENDBRANCH  40  41
ENDBRANCH  14  40
TORSDOF 8
