REMARK  Name = 
REMARK  13 active torsions:
REMARK  status: ('A' for Active; 'I' for Inactive)
REMARK    1  A    between atoms: C_1  and  O_2
REMARK    2  A    between atoms: O_2  and  C_3
REMARK    3  A    between atoms: C_6  and  C_7
REMARK    4  A    between atoms: C_9  and  O_10
REMARK    5  A    between atoms: O_10  and  C_11
REMARK    6  A    between atoms: C_12  and  O_13
REMARK    7  A    between atoms: C_14  and  C_15
REMARK    8  A    between atoms: C_17  and  C_18
REMARK    9  A    between atoms: C_19  and  O_20
REMARK   10  A    between atoms: O_20  and  C_21
REMARK   11  A    between atoms: C_24  and  O_25
REMARK   12  A    between atoms: O_25  and  C_26
REMARK   13  A    between atoms: C_30  and  C_31
REMARK                            x       y       z     vdW  Elec       q    Type
REMARK                         _______ _______ _______ _____ _____    ______ ____
ROOT
ATOM      1  C   UNL     1      -4.621   0.278  -1.982  0.00  0.00    +0.169 C 
ATOM      2  C   UNL     1      -3.592   1.029  -2.410  0.00  0.00    +0.046 C 
ATOM      3  C   UNL     1      -2.860   0.759  -3.711  0.00  0.00    +0.046 C 
ATOM      4  C   UNL     1      -1.723  -0.301  -3.578  0.00  0.00    -0.007 C 
ATOM      5  C   UNL     1      -0.878  -0.281  -4.854  0.00  0.00    +0.008 C 
ATOM      6  C   UNL     1      -0.861  -0.068  -2.321  0.00  0.00    +0.037 C 
ATOM      7  C   UNL     1       0.221  -1.110  -1.964  0.00  0.00    +0.147 C 
ATOM      8  C   UNL     1       0.677  -0.832  -0.494  0.00  0.00    +0.150 C 
ATOM      9  C   UNL     1       1.829  -1.737   0.016  0.00  0.00    +0.040 C 
ATOM     10  C   UNL     1       3.200  -1.427  -0.586  0.00  0.00    +0.014 C 
ATOM     11  C   UNL     1       1.864  -1.854   1.535  0.00  0.00    -0.019 C 
ATOM     12  C   UNL     1       2.111  -0.952   2.512  0.00  0.00    -0.033 C 
ATOM     13  C   UNL     1       2.028  -1.411   3.952  0.00  0.00    +0.042 C 
ATOM     14  C   UNL     1       2.495   0.518   2.309  0.00  0.00    +0.236 C 
ATOM     15  C   UNL     1       1.395   1.535   2.786  0.00  0.00    +0.186 C 
ATOM     16  C   UNL     1       1.714   2.947   2.347  0.00  0.00    +0.008 C 
ATOM     17  C   UNL     1       0.964   3.836   1.674  0.00  0.00    -0.001 C 
ATOM     18  C   UNL     1      -0.407   3.681   1.227  0.00  0.00    +0.008 C 
ATOM     19  C   UNL     1      -1.113   4.587   0.515  0.00  0.00    +0.013 C 
ATOM     20  C   UNL     1      -0.600   5.901  -0.012  0.00  0.00    +0.049 C 
ATOM     21  C   UNL     1      -2.557   4.350   0.137  0.00  0.00    +0.263 C 
ATOM     22  O   UNL     1      -3.187   5.154  -0.539  0.00  0.00    -0.268 OA
ATOM     23  N   UNL     1      -3.138   3.232   0.674  0.00  0.00    -0.177 NA
ATOM     24  C   UNL     1      -3.467   2.272  -0.140  0.00  0.00    +0.089 C 
ATOM     25  C   UNL     1      -4.265   1.131   0.403  0.00  0.00    +0.139 C 
ATOM     26  C   UNL     1      -5.179   0.510  -0.610  0.00  0.00    +0.203 C 
ATOM     27  O   UNL     1      -6.305   0.129  -0.302  0.00  0.00    -0.288 OA
ATOM     28  C   UNL     1      -3.039   2.153  -1.594  0.00  0.00    +0.205 C 
ATOM     29  O   UNL     1      -2.177   2.894  -2.042  0.00  0.00    -0.286 OA
ENDROOT
BRANCH   7  30
ATOM     30  O   UNL     1      -0.361  -2.416  -2.032  0.00  0.00    -0.377 OA
ATOM     31  C   UNL     1       0.374  -3.325  -2.842  0.00  0.00    +0.194 C 
ENDBRANCH   7  30
BRANCH   8  32
ATOM     32  O   UNL     1       0.985   0.555  -0.333  0.00  0.00    -0.389 OA
ATOM     33  H   UNL     1       1.721   0.783  -0.929  0.00  0.00    +0.210 HD
ENDBRANCH   8  32
BRANCH   1  35
ATOM     34  C   UNL     1      -5.579  -1.898  -2.157  0.00  0.00    +0.277 C 
ATOM     35  O   UNL     1      -5.119  -0.718  -2.811  0.00  0.00    -0.491 OA
ENDBRANCH   1  35
BRANCH  15  36
ATOM     36  O   UNL     1       1.336   1.547   4.226  0.00  0.00    -0.372 OA
ATOM     37  C   UNL     1       0.073   1.967   4.726  0.00  0.00    +0.195 C 
ENDBRANCH  15  36
BRANCH  14  38
ATOM     38  O   UNL     1       3.736   0.726   3.027  0.00  0.00    -0.440 OA
BRANCH  38  39
ATOM     39  C   UNL     1       4.737   1.328   2.360  0.00  0.00    +0.398 C 
ATOM     40  N   UNL     1       5.809   1.458   3.172  0.00  0.00    -0.295 N 
ATOM     41  O   UNL     1       4.725   1.720   1.204  0.00  0.00    -0.227 OA
ATOM     42  H   UNL     1       5.755   1.123   4.122  0.00  0.00    +0.148 HD
ATOM     43  H   UNL     1       6.646   1.896   2.822  0.00  0.00    +0.148 HD
ENDBRANCH  38  39
ENDBRANCH  14  38
TORSDOF 6
