REMARK  Name = 
REMARK  14 active torsions:
REMARK  status: ('A' for Active; 'I' for Inactive)
REMARK    1  A    between atoms: C_1  and  O_2
REMARK    2  A    between atoms: O_2  and  C_3
REMARK    3  A    between atoms: C_6  and  C_7
REMARK    4  A    between atoms: C_9  and  O_10
REMARK    5  A    between atoms: O_10  and  C_11
REMARK    6  A    between atoms: C_12  and  O_13
REMARK    7  A    between atoms: C_14  and  C_15
REMARK    8  A    between atoms: C_17  and  C_18
REMARK    9  A    between atoms: C_19  and  O_20
REMARK   10  A    between atoms: O_20  and  C_21
REMARK   11  A    between atoms: C_24  and  O_25
REMARK   12  A    between atoms: O_25  and  C_26
REMARK   13  A    between atoms: C_30  and  C_31
REMARK   14  A    between atoms: C_32  and  O_33
REMARK                            x       y       z     vdW  Elec       q    Type
REMARK                         _______ _______ _______ _____ _____    ______ ____
ROOT
ATOM      1  C   UNL     1      -0.693   4.375   0.471  0.00  0.00    +0.173 C 
ATOM      2  C   UNL     1      -1.132   3.222   1.008  0.00  0.00    +0.047 C 
ATOM      3  C   UNL     1      -2.393   2.431   0.740  0.00  0.00    +0.046 C 
ATOM      4  C   UNL     1      -3.073   2.309  -0.654  0.00  0.00    -0.007 C 
ATOM      5  C   UNL     1      -4.091   3.430  -0.898  0.00  0.00    +0.008 C 
ATOM      6  C   UNL     1      -2.131   2.156  -1.869  0.00  0.00    +0.037 C 
ATOM      7  C   UNL     1      -1.319   0.836  -1.948  0.00  0.00    +0.147 C 
ATOM      8  C   UNL     1      -2.085  -0.298  -2.703  0.00  0.00    +0.150 C 
ATOM      9  C   UNL     1      -1.487  -1.749  -2.606  0.00  0.00    +0.040 C 
ATOM     10  C   UNL     1      -0.015  -1.834  -2.990  0.00  0.00    +0.014 C 
ATOM     11  C   UNL     1      -1.927  -2.523  -1.369  0.00  0.00    -0.019 C 
ATOM     12  C   UNL     1      -1.324  -3.062  -0.283  0.00  0.00    -0.033 C 
ATOM     13  C   UNL     1      -2.209  -3.806   0.705  0.00  0.00    +0.042 C 
ATOM     14  C   UNL     1       0.160  -2.981   0.122  0.00  0.00    +0.236 C 
ATOM     15  C   UNL     1       0.573  -1.708   0.974  0.00  0.00    +0.186 C 
ATOM     16  C   UNL     1      -0.606  -0.999   1.589  0.00  0.00    +0.008 C 
ATOM     17  C   UNL     1      -0.833  -0.509   2.812  0.00  0.00    -0.001 C 
ATOM     18  C   UNL     1      -0.005  -0.369   3.978  0.00  0.00    +0.008 C 
ATOM     19  C   UNL     1       1.165   0.277   4.122  0.00  0.00    +0.011 C 
ATOM     20  C   UNL     1       1.777   0.475   5.482  0.00  0.00    +0.049 C 
ATOM     21  C   UNL     1       2.009   0.780   3.019  0.00  0.00    +0.216 C 
ATOM     22  N   UNL     1       2.072   1.719   2.162  0.00  0.00    -0.209 NA
ATOM     23  C   UNL     1       1.172   2.723   1.939  0.00  0.00    +0.118 C 
ATOM     24  C   UNL     1       1.609   3.846   1.355  0.00  0.00    +0.086 C 
ATOM     25  C   UNL     1       0.675   4.871   0.858  0.00  0.00    +0.223 C 
ATOM     26  O   UNL     1       1.065   6.018   0.686  0.00  0.00    -0.284 OA
ATOM     27  C   UNL     1      -0.305   2.690   2.141  0.00  0.00    +0.211 C 
ATOM     28  O   UNL     1      -0.838   2.374   3.197  0.00  0.00    -0.285 OA
ENDROOT
BRANCH   7  29
ATOM     29  O   UNL     1      -0.120   1.079  -2.713  0.00  0.00    -0.377 OA
ATOM     30  C   UNL     1       0.874   1.829  -2.031  0.00  0.00    +0.194 C 
ENDBRANCH   7  29
BRANCH   8  31
ATOM     31  O   UNL     1      -3.474  -0.352  -2.344  0.00  0.00    -0.389 OA
ATOM     32  H   UNL     1      -3.924   0.360  -2.831  0.00  0.00    +0.210 HD
ENDBRANCH   8  31
BRANCH  21  33
ATOM     33  O   UNL     1       3.085  -0.042   2.997  0.00  0.00    -0.492 OA
ATOM     34  H   UNL     1       3.663   0.282   2.288  0.00  0.00    +0.294 HD
ENDBRANCH  21  33
BRANCH   1  36
ATOM     35  C   UNL     1      -1.491   6.465  -0.313  0.00  0.00    +0.277 C 
ATOM     36  O   UNL     1      -1.446   5.049  -0.469  0.00  0.00    -0.491 OA
ENDBRANCH   1  36
BRANCH  15  37
ATOM     37  O   UNL     1       1.197  -0.710   0.149  0.00  0.00    -0.372 OA
ATOM     38  C   UNL     1       2.541  -1.023  -0.199  0.00  0.00    +0.195 C 
ENDBRANCH  15  37
BRANCH  14  39
ATOM     39  O   UNL     1       0.444  -4.184   0.889  0.00  0.00    -0.440 OA
BRANCH  39  40
ATOM     40  C   UNL     1       1.730  -4.581   0.931  0.00  0.00    +0.398 C 
ATOM     41  N   UNL     1       1.837  -5.707   1.668  0.00  0.00    -0.295 N 
ATOM     42  O   UNL     1       2.681  -4.031   0.403  0.00  0.00    -0.227 OA
ATOM     43  H   UNL     1       1.015  -6.120   2.080  0.00  0.00    +0.148 HD
ATOM     44  H   UNL     1       2.745  -6.129   1.794  0.00  0.00    +0.148 HD
ENDBRANCH  39  40
ENDBRANCH  14  39
TORSDOF 7
