REMARK  Name = 
REMARK  14 active torsions:
REMARK  status: ('A' for Active; 'I' for Inactive)
REMARK    1  A    between atoms: C_1  and  O_2
REMARK    2  A    between atoms: O_2  and  C_3
REMARK    3  A    between atoms: C_6  and  C_7
REMARK    4  A    between atoms: C_9  and  O_10
REMARK    5  A    between atoms: O_10  and  C_11
REMARK    6  A    between atoms: C_12  and  O_13
REMARK    7  A    between atoms: C_14  and  C_15
REMARK    8  A    between atoms: C_17  and  C_18
REMARK    9  A    between atoms: C_19  and  O_20
REMARK   10  A    between atoms: O_20  and  C_21
REMARK   11  A    between atoms: C_24  and  O_25
REMARK   12  A    between atoms: O_25  and  C_26
REMARK   13  A    between atoms: C_30  and  C_31
REMARK   14  A    between atoms: C_37  and  O_38
REMARK                            x       y       z     vdW  Elec       q    Type
REMARK                         _______ _______ _______ _____ _____    ______ ____
ROOT
ATOM      1  C   UNL     1      -3.498  -2.668  -1.238  0.00  0.00    +0.172 C 
ATOM      2  C   UNL     1      -2.136  -2.729  -0.675  0.00  0.00    +0.065 C 
ATOM      3  C   UNL     1      -1.768  -3.626   0.273  0.00  0.00    -0.008 C 
ATOM      4  C   UNL     1      -0.412  -3.929   0.910  0.00  0.00    +0.012 C 
ATOM      5  C   UNL     1       0.631  -4.301  -0.149  0.00  0.00    +0.012 C 
ATOM      6  C   UNL     1      -0.006  -2.959   2.069  0.00  0.00    +0.041 C 
ATOM      7  C   UNL     1       1.342  -2.194   1.948  0.00  0.00    +0.147 C 
ATOM      8  C   UNL     1       1.217  -0.669   2.288  0.00  0.00    +0.150 C 
ATOM      9  C   UNL     1       2.461   0.175   1.843  0.00  0.00    +0.040 C 
ATOM     10  C   UNL     1       2.888  -0.045   0.394  0.00  0.00    +0.014 C 
ATOM     11  C   UNL     1       2.288   1.641   2.230  0.00  0.00    -0.019 C 
ATOM     12  C   UNL     1       1.947   2.765   1.553  0.00  0.00    -0.033 C 
ATOM     13  C   UNL     1       1.879   4.058   2.347  0.00  0.00    +0.042 C 
ATOM     14  C   UNL     1       1.582   2.904   0.060  0.00  0.00    +0.236 C 
ATOM     15  C   UNL     1       0.065   2.651  -0.253  0.00  0.00    +0.186 C 
ATOM     16  C   UNL     1      -0.429   2.944  -1.662  0.00  0.00    +0.008 C 
ATOM     17  C   UNL     1       0.100   2.764  -2.882  0.00  0.00    -0.001 C 
ATOM     18  C   UNL     1       1.346   2.149  -3.253  0.00  0.00    +0.008 C 
ATOM     19  C   UNL     1       1.699   0.849  -3.270  0.00  0.00    +0.012 C 
ATOM     20  C   UNL     1       3.100   0.460  -3.672  0.00  0.00    +0.049 C 
ATOM     21  C   UNL     1       0.856  -0.329  -2.874  0.00  0.00    +0.244 C 
ATOM     22  O   UNL     1       1.398  -1.381  -2.543  0.00  0.00    -0.270 OA
ATOM     23  N   UNL     1      -0.504  -0.190  -3.042  0.00  0.00    -0.279 N 
ATOM     24  C   UNL     1      -1.460  -0.990  -2.442  0.00  0.00    +0.085 C 
ATOM     25  C   UNL     1      -2.713  -1.058  -2.915  0.00  0.00    +0.076 C 
ATOM     26  C   UNL     1      -3.754  -1.850  -2.287  0.00  0.00    +0.161 C 
ATOM     27  C   UNL     1      -1.163  -1.689  -1.145  0.00  0.00    +0.211 C 
ATOM     28  O   UNL     1      -0.241  -1.304  -0.432  0.00  0.00    -0.285 OA
ATOM     29  H   UNL     1      -0.814   0.533  -3.675  0.00  0.00    +0.155 HD
ENDROOT
BRANCH   7  30
ATOM     30  O   UNL     1       2.317  -2.711   2.876  0.00  0.00    -0.377 OA
ATOM     31  C   UNL     1       2.896  -3.947   2.493  0.00  0.00    +0.194 C 
ENDBRANCH   7  30
BRANCH   8  32
ATOM     32  O   UNL     1       0.030  -0.092   1.742  0.00  0.00    -0.389 OA
ATOM     33  H   UNL     1      -0.039  -0.453   0.832  0.00  0.00    +0.210 HD
ENDBRANCH   8  32
BRANCH  26  34
ATOM     34  O   UNL     1      -5.003  -1.725  -2.857  0.00  0.00    -0.503 OA
ATOM     35  H   UNL     1      -4.997  -1.029  -3.534  0.00  0.00    +0.292 HD
ENDBRANCH  26  34
BRANCH   1  37
ATOM     36  C   UNL     1      -5.748  -3.537  -0.985  0.00  0.00    +0.277 C 
ATOM     37  O   UNL     1      -4.390  -3.485  -0.575  0.00  0.00    -0.491 OA
ENDBRANCH   1  37
BRANCH  15  38
ATOM     38  O   UNL     1      -0.762   3.511   0.569  0.00  0.00    -0.372 OA
ATOM     39  C   UNL     1      -1.485   2.791   1.561  0.00  0.00    +0.195 C 
ENDBRANCH  15  38
BRANCH  14  40
ATOM     40  O   UNL     1       1.917   4.256  -0.354  0.00  0.00    -0.440 OA
BRANCH  40  41
ATOM     41  C   UNL     1       3.026   4.419  -1.098  0.00  0.00    +0.398 C 
ATOM     42  N   UNL     1       3.199   5.733  -1.364  0.00  0.00    -0.295 N 
ATOM     43  O   UNL     1       3.786   3.555  -1.502  0.00  0.00    -0.227 OA
ATOM     44  H   UNL     1       2.541   6.402  -0.995  0.00  0.00    +0.148 HD
ATOM     45  H   UNL     1       3.999   6.027  -1.901  0.00  0.00    +0.148 HD
ENDBRANCH  40  41
ENDBRANCH  14  40
TORSDOF 7
