REMARK  Name = 
REMARK  3 active torsions:
REMARK  status: ('A' for Active; 'I' for Inactive)
REMARK    1  A    between atoms: C_3  and  N_15
REMARK    2  A    between atoms: C_19  and  C_21
REMARK    3  A    between atoms: C_21  and  O_22
REMARK                            x       y       z     vdW  Elec       q    Type
REMARK                         _______ _______ _______ _____ _____    ______ ____
ROOT
ATOM      1  C   UNL     1       1.641   2.899   0.249  0.00  0.00    +0.224 A 
ATOM      2  N   UNL     1       0.382   2.504   0.021  0.00  0.00    -0.220 NA
ATOM      3  C   UNL     1       0.140   1.196  -0.238  0.00  0.00    +0.133 A 
ATOM      4  C   UNL     1       1.225   0.283  -0.205  0.00  0.00    +0.051 A 
ATOM      5  C   UNL     1       1.333  -1.170  -0.326  0.00  0.00    -0.025 A 
ATOM      6  C   UNL     1       2.661  -1.583  -0.288  0.00  0.00    -0.004 A 
ATOM      7  S   UNL     1       3.732  -0.280  -0.002  0.00  0.00    -0.073 S 
ATOM      8  C   UNL     1       2.468   0.850   0.028  0.00  0.00    +0.114 A 
ATOM      9  N   UNL     1       2.739   2.146   0.254  0.00  0.00    -0.228 NA
ATOM     10  C   UNL     1       3.241  -2.966  -0.422  0.00  0.00    +0.043 C 
ATOM     11  C   UNL     1       2.425  -3.865  -1.346  0.00  0.00    +0.005 C 
ATOM     12  C   UNL     1       1.166  -4.442  -0.698  0.00  0.00    +0.001 C 
ATOM     13  C   UNL     1       0.347  -3.476   0.159  0.00  0.00    +0.005 C 
ATOM     14  C   UNL     1       0.148  -2.097  -0.470  0.00  0.00    +0.037 C 
ENDROOT
BRANCH   3  15
ATOM     15  N   UNL     1      -1.165   0.823  -0.552  0.00  0.00    -0.314 N 
ATOM     16  C   UNL     1      -2.213   1.450   0.241  0.00  0.00    +0.106 C 
ATOM     17  C   UNL     1      -3.484   0.597   0.160  0.00  0.00    +0.020 C 
ATOM     18  C   UNL     1      -3.686  -0.077  -1.202  0.00  0.00    +0.016 C 
ATOM     19  C   UNL     1      -2.907   0.637  -2.308  0.00  0.00    +0.091 C 
ATOM     20  C   UNL     1      -1.405   0.682  -1.995  0.00  0.00    +0.119 C 
BRANCH  19  21
ATOM     21  C   UNL     1      -3.137  -0.007  -3.641  0.00  0.00    +0.184 C 
ATOM     22  N   UNL     1      -3.617   0.559  -4.688  0.00  0.00    -0.271 NA
ATOM     23  H   UNL     1      -3.837   1.542  -4.496  0.00  0.00    +0.190 HD
BRANCH  21  24
ATOM     24  O   UNL     1      -2.814  -1.292  -3.753  0.00  0.00    -0.496 OA
ATOM     25  H   UNL     1      -3.032  -1.558  -4.664  0.00  0.00    +0.293 HD
ENDBRANCH  21  24
ENDBRANCH  19  21
ENDBRANCH   3  15
TORSDOF 3
