REMARK  Name = 
REMARK  2 active torsions:
REMARK  status: ('A' for Active; 'I' for Inactive)
REMARK    1  A    between atoms: C_3  and  N_15
REMARK    2  A    between atoms: C_19  and  C_21
REMARK                            x       y       z     vdW  Elec       q    Type
REMARK                         _______ _______ _______ _____ _____    ______ ____
ROOT
ATOM      1  C   UNL     1       3.816  -0.440   1.094  0.00  0.00    +0.224 A 
ATOM      2  N   UNL     1       3.075  -0.416  -0.020  0.00  0.00    -0.220 NA
ATOM      3  C   UNL     1       1.722  -0.390   0.081  0.00  0.00    +0.133 A 
ATOM      4  C   UNL     1       1.142  -0.477   1.375  0.00  0.00    +0.051 A 
ATOM      5  C   UNL     1      -0.221  -0.610   1.878  0.00  0.00    -0.025 A 
ATOM      6  C   UNL     1      -0.259  -0.596   3.265  0.00  0.00    -0.004 A 
ATOM      7  S   UNL     1       1.296  -0.510   3.954  0.00  0.00    -0.073 S 
ATOM      8  C   UNL     1       2.045  -0.478   2.430  0.00  0.00    +0.114 A 
ATOM      9  N   UNL     1       3.385  -0.451   2.353  0.00  0.00    -0.228 NA
ATOM     10  C   UNL     1      -1.469  -0.666   4.149  0.00  0.00    +0.043 C 
ATOM     11  C   UNL     1      -2.467   0.454   3.846  0.00  0.00    +0.005 C 
ATOM     12  C   UNL     1      -3.277   0.244   2.563  0.00  0.00    +0.001 C 
ATOM     13  C   UNL     1      -2.478   0.354   1.260  0.00  0.00    +0.005 C 
ATOM     14  C   UNL     1      -1.468  -0.775   1.052  0.00  0.00    +0.037 C 
ENDROOT
BRANCH   3  15
ATOM     15  N   UNL     1       0.984  -0.263  -1.090  0.00  0.00    -0.314 N 
ATOM     16  C   UNL     1       0.344   1.032  -1.302  0.00  0.00    +0.106 C 
ATOM     17  C   UNL     1       1.345   2.043  -1.859  0.00  0.00    +0.020 C 
ATOM     18  C   UNL     1       2.425   1.424  -2.752  0.00  0.00    +0.016 C 
ATOM     19  C   UNL     1       2.063   0.052  -3.331  0.00  0.00    +0.092 C 
ATOM     20  C   UNL     1       1.490  -0.928  -2.293  0.00  0.00    +0.119 C 
BRANCH  19  21
ATOM     21  C   UNL     1       1.101   0.181  -4.503  0.00  0.00    +0.215 C 
ATOM     22  O   UNL     1       0.342   1.127  -4.679  0.00  0.00    -0.276 OA
ATOM     23  N   UNL     1       1.112  -0.864  -5.383  0.00  0.00    -0.329 N 
ATOM     24  H   UNL     1       1.733  -1.657  -5.306  0.00  0.00    +0.145 HD
ATOM     25  H   UNL     1       0.484  -0.814  -6.176  0.00  0.00    +0.145 HD
ENDBRANCH  19  21
ENDBRANCH   3  15
TORSDOF 2
