REMARK  Name = 
REMARK  2 active torsions:
REMARK  status: ('A' for Active; 'I' for Inactive)
REMARK    1  A    between atoms: C_3  and  N_15
REMARK    2  A    between atoms: C_19  and  C_21
REMARK                            x       y       z     vdW  Elec       q    Type
REMARK                         _______ _______ _______ _____ _____    ______ ____
ROOT
ATOM      1  C   UNL     1      -0.560  -2.128  -3.335  0.00  0.00    +0.224 A 
ATOM      2  N   UNL     1      -0.760  -2.172  -2.013  0.00  0.00    -0.220 NA
ATOM      3  C   UNL     1      -0.315  -1.150  -1.243  0.00  0.00    +0.133 A 
ATOM      4  C   UNL     1       0.382  -0.082  -1.863  0.00  0.00    +0.051 A 
ATOM      5  C   UNL     1       1.062   1.116  -1.375  0.00  0.00    -0.025 A 
ATOM      6  C   UNL     1       1.573   1.879  -2.419  0.00  0.00    -0.004 A 
ATOM      7  S   UNL     1       1.301   1.142  -3.940  0.00  0.00    -0.073 S 
ATOM      8  C   UNL     1       0.495  -0.176  -3.243  0.00  0.00    +0.114 A 
ATOM      9  N   UNL     1       0.041  -1.166  -4.029  0.00  0.00    -0.228 NA
ATOM     10  C   UNL     1       2.297   3.200  -2.408  0.00  0.00    +0.043 C 
ATOM     11  C   UNL     1       2.340   3.938  -1.068  0.00  0.00    +0.005 C 
ATOM     12  C   UNL     1       0.980   4.036  -0.380  0.00  0.00    +0.001 C 
ATOM     13  C   UNL     1       0.594   2.812   0.460  0.00  0.00    +0.005 C 
ATOM     14  C   UNL     1       1.246   1.485   0.070  0.00  0.00    +0.037 C 
ENDROOT
BRANCH   3  15
ATOM     15  N   UNL     1      -0.606  -1.194   0.120  0.00  0.00    -0.314 N 
ATOM     16  C   UNL     1      -1.825  -0.458   0.463  0.00  0.00    +0.106 C 
ATOM     17  C   UNL     1      -2.248  -0.789   1.891  0.00  0.00    +0.020 C 
ATOM     18  C   UNL     1      -2.569  -2.279   2.038  0.00  0.00    +0.016 C 
ATOM     19  C   UNL     1      -1.672  -3.174   1.163  0.00  0.00    +0.092 C 
ATOM     20  C   UNL     1      -0.362  -2.481   0.784  0.00  0.00    +0.119 C 
BRANCH  19  21
ATOM     21  C   UNL     1      -1.382  -4.508   1.826  0.00  0.00    +0.215 C 
ATOM     22  O   UNL     1      -1.726  -5.582   1.342  0.00  0.00    -0.276 OA
ATOM     23  N   UNL     1      -0.712  -4.480   3.013  0.00  0.00    -0.329 N 
ATOM     24  H   UNL     1      -0.427  -3.635   3.485  0.00  0.00    +0.145 HD
ATOM     25  H   UNL     1      -0.521  -5.370   3.456  0.00  0.00    +0.145 HD
ENDBRANCH  19  21
ENDBRANCH   3  15
TORSDOF 2
