REMARK  Name = 
REMARK  3 active torsions:
REMARK  status: ('A' for Active; 'I' for Inactive)
REMARK    1  A    between atoms: C_3  and  N_15
REMARK    2  A    between atoms: C_19  and  C_21
REMARK    3  A    between atoms: C_21  and  O_22
REMARK                            x       y       z     vdW  Elec       q    Type
REMARK                         _______ _______ _______ _____ _____    ______ ____
ROOT
ATOM      1  C   UNL     1       2.355  -2.702   1.959  0.00  0.00    +0.224 A 
ATOM      2  N   UNL     1       2.351  -1.992   0.825  0.00  0.00    -0.220 NA
ATOM      3  C   UNL     1       1.304  -1.175   0.552  0.00  0.00    +0.133 A 
ATOM      4  C   UNL     1       0.204  -1.172   1.450  0.00  0.00    +0.051 A 
ATOM      5  C   UNL     1      -1.123  -0.569   1.441  0.00  0.00    -0.025 A 
ATOM      6  C   UNL     1      -1.801  -0.804   2.627  0.00  0.00    -0.004 A 
ATOM      7  S   UNL     1      -0.932  -1.823   3.679  0.00  0.00    -0.073 S 
ATOM      8  C   UNL     1       0.371  -1.941   2.595  0.00  0.00    +0.114 A 
ATOM      9  N   UNL     1       1.422  -2.716   2.907  0.00  0.00    -0.228 NA
ATOM     10  C   UNL     1      -3.154  -0.289   3.023  0.00  0.00    +0.043 C 
ATOM     11  C   UNL     1      -3.223   1.239   2.964  0.00  0.00    +0.005 C 
ATOM     12  C   UNL     1      -3.316   1.815   1.547  0.00  0.00    +0.001 C 
ATOM     13  C   UNL     1      -2.060   1.651   0.685  0.00  0.00    +0.005 C 
ATOM     14  C   UNL     1      -1.750   0.201   0.313  0.00  0.00    +0.037 C 
ENDROOT
BRANCH   3  15
ATOM     15  N   UNL     1       1.395  -0.360  -0.574  0.00  0.00    -0.314 N 
ATOM     16  C   UNL     1       1.560   1.072  -0.304  0.00  0.00    +0.106 C 
ATOM     17  C   UNL     1       2.746   1.644  -1.079  0.00  0.00    +0.020 C 
ATOM     18  C   UNL     1       2.606   1.405  -2.584  0.00  0.00    +0.016 C 
ATOM     19  C   UNL     1       2.002   0.031  -2.912  0.00  0.00    +0.091 C 
ATOM     20  C   UNL     1       2.103  -0.931  -1.727  0.00  0.00    +0.119 C 
BRANCH  19  21
ATOM     21  C   UNL     1       2.664  -0.569  -4.118  0.00  0.00    +0.184 C 
ATOM     22  N   UNL     1       3.855  -1.045  -4.140  0.00  0.00    -0.271 NA
ATOM     23  H   UNL     1       4.117  -1.394  -5.062  0.00  0.00    +0.190 HD
BRANCH  21  24
ATOM     24  O   UNL     1       1.918  -0.554  -5.228  0.00  0.00    -0.496 OA
ATOM     25  H   UNL     1       2.382  -0.942  -5.983  0.00  0.00    +0.293 HD
ENDBRANCH  21  24
ENDBRANCH  19  21
ENDBRANCH   3  15
TORSDOF 3
