REMARK  Name = 
REMARK  3 active torsions:
REMARK  status: ('A' for Active; 'I' for Inactive)
REMARK    1  A    between atoms: C_3  and  N_15
REMARK    2  A    between atoms: C_19  and  C_21
REMARK    3  A    between atoms: C_21  and  O_22
REMARK                            x       y       z     vdW  Elec       q    Type
REMARK                         _______ _______ _______ _____ _____    ______ ____
ROOT
ATOM      1  C   UNL     1      -1.588   2.098  -3.522  0.00  0.00    +0.224 A 
ATOM      2  N   UNL     1      -1.859   1.964  -2.219  0.00  0.00    -0.220 NA
ATOM      3  C   UNL     1      -1.534   0.810  -1.583  0.00  0.00    +0.133 A 
ATOM      4  C   UNL     1      -1.000  -0.253  -2.360  0.00  0.00    +0.051 A 
ATOM      5  C   UNL     1      -0.677  -1.650  -2.098  0.00  0.00    -0.025 A 
ATOM      6  C   UNL     1      -0.074  -2.252  -3.193  0.00  0.00    -0.004 A 
ATOM      7  S   UNL     1      -0.015  -1.220  -4.546  0.00  0.00    -0.073 S 
ATOM      8  C   UNL     1      -0.751   0.051  -3.692  0.00  0.00    +0.114 A 
ATOM      9  N   UNL     1      -1.014   1.206  -4.325  0.00  0.00    -0.228 NA
ATOM     10  C   UNL     1       0.471  -3.646  -3.281  0.00  0.00    +0.043 C 
ATOM     11  C   UNL     1       1.522  -3.918  -2.201  0.00  0.00    +0.005 C 
ATOM     12  C   UNL     1       0.946  -4.135  -0.797  0.00  0.00    +0.001 C 
ATOM     13  C   UNL     1       0.319  -2.898  -0.143  0.00  0.00    +0.005 C 
ATOM     14  C   UNL     1      -0.955  -2.413  -0.834  0.00  0.00    +0.037 C 
ENDROOT
BRANCH   3  15
ATOM     15  N   UNL     1      -1.712   0.758  -0.204  0.00  0.00    -0.314 N 
ATOM     16  C   UNL     1      -2.831   1.530   0.338  0.00  0.00    +0.106 C 
ATOM     17  C   UNL     1      -2.835   1.431   1.862  0.00  0.00    +0.020 C 
ATOM     18  C   UNL     1      -1.553   2.018   2.459  0.00  0.00    +0.016 C 
ATOM     19  C   UNL     1      -0.339   1.857   1.532  0.00  0.00    +0.091 C 
ATOM     20  C   UNL     1      -0.489   0.647   0.606  0.00  0.00    +0.119 C 
BRANCH  19  21
ATOM     21  C   UNL     1       0.928   1.760   2.334  0.00  0.00    +0.184 C 
ATOM     22  N   UNL     1       1.751   2.732   2.477  0.00  0.00    -0.271 NA
ATOM     23  H   UNL     1       2.549   2.488   3.063  0.00  0.00    +0.190 HD
BRANCH  21  24
ATOM     24  O   UNL     1       1.151   0.589   2.937  0.00  0.00    -0.496 OA
ATOM     25  H   UNL     1       1.966   0.603   3.460  0.00  0.00    +0.293 HD
ENDBRANCH  21  24
ENDBRANCH  19  21
ENDBRANCH   3  15
TORSDOF 3
