REMARK  Name = 
REMARK  3 active torsions:
REMARK  status: ('A' for Active; 'I' for Inactive)
REMARK    1  A    between atoms: C_3  and  N_15
REMARK    2  A    between atoms: C_21  and  O_22
REMARK    3  A    between atoms: C_21  and  N_23
REMARK                            x       y       z     vdW  Elec       q    Type
REMARK                         _______ _______ _______ _____ _____    ______ ____
ROOT
ATOM      1  C   UNL     1      -0.535   2.652  -3.272  0.00  0.00    +0.224 A 
ATOM      2  N   UNL     1      -0.707   2.488  -1.955  0.00  0.00    -0.220 NA
ATOM      3  C   UNL     1      -0.778   1.233  -1.446  0.00  0.00    +0.133 A 
ATOM      4  C   UNL     1      -0.603   0.135  -2.328  0.00  0.00    +0.051 A 
ATOM      5  C   UNL     1      -0.510  -1.311  -2.151  0.00  0.00    -0.025 A 
ATOM      6  C   UNL     1      -0.404  -1.967  -3.369  0.00  0.00    -0.004 A 
ATOM      7  S   UNL     1      -0.323  -0.884  -4.684  0.00  0.00    -0.073 S 
ATOM      8  C   UNL     1      -0.454   0.469  -3.667  0.00  0.00    +0.114 A 
ATOM      9  N   UNL     1      -0.419   1.702  -4.197  0.00  0.00    -0.228 NA
ATOM     10  C   UNL     1      -0.340  -3.445  -3.618  0.00  0.00    +0.043 C 
ATOM     11  C   UNL     1       0.856  -4.097  -2.925  0.00  0.00    +0.005 C 
ATOM     12  C   UNL     1       0.691  -4.244  -1.411  0.00  0.00    +0.001 C 
ATOM     13  C   UNL     1       0.716  -2.930  -0.628  0.00  0.00    +0.005 C 
ATOM     14  C   UNL     1      -0.515  -2.043  -0.836  0.00  0.00    +0.037 C 
ENDROOT
BRANCH   3  15
ATOM     15  N   UNL     1      -1.042   1.089  -0.082  0.00  0.00    -0.310 N 
ATOM     16  C   UNL     1      -2.443   0.757   0.196  0.00  0.00    +0.107 C 
ATOM     17  C   UNL     1      -2.602   0.347   1.660  0.00  0.00    +0.023 C 
ATOM     18  C   UNL     1      -1.993   1.387   2.599  0.00  0.00    +0.039 C 
ATOM     19  C   UNL     1      -0.556   1.648   2.200  0.00  0.00    +0.004 C 
ATOM     20  C   UNL     1      -0.458   2.126   0.766  0.00  0.00    +0.142 C 
ATOM     21  C   UNL     1       0.494   1.477   3.027  0.00  0.00    +0.175 C 
BRANCH  21  22
ATOM     22  N   UNL     1       0.437   1.134   4.330  0.00  0.00    -0.330 N 
ATOM     23  H   UNL     1       1.315   1.096   4.832  0.00  0.00    +0.145 HD
ATOM     24  H   UNL     1      -0.434   1.028   4.825  0.00  0.00    +0.145 HD
ENDBRANCH  21  22
BRANCH  21  25
ATOM     25  O   UNL     1       1.789   1.639   2.615  0.00  0.00    -0.495 OA
ATOM     26  H   UNL     1       1.840   1.387   1.679  0.00  0.00    +0.293 HD
ENDBRANCH  21  25
ENDBRANCH   3  15
TORSDOF 3
