REMARK  Name = 
REMARK  3 active torsions:
REMARK  status: ('A' for Active; 'I' for Inactive)
REMARK    1  A    between atoms: C_1  and  C_2
REMARK    2  A    between atoms: C_11  and  O_12
REMARK    3  A    between atoms: C_20  and  O_21
REMARK                            x       y       z     vdW  Elec       q    Type
REMARK                         _______ _______ _______ _____ _____    ______ ____
ROOT
ATOM      1  C   UNL     1      -3.488   0.666   1.134  0.00  0.00    +0.052 C 
ATOM      2  C   UNL     1      -2.652   1.259  -0.001  0.00  0.00    +0.176 C 
ATOM      3  C   UNL     1      -3.007   0.629  -1.357  0.00  0.00    +0.079 C 
ATOM      4  C   UNL     1      -2.592  -0.811  -1.472  0.00  0.00    +0.155 C 
ATOM      5  O   UNL     1      -3.408  -1.621  -2.324  0.00  0.00    -0.364 OA
ATOM      6  C   UNL     1      -2.084  -1.332  -2.798  0.00  0.00    +0.170 C 
ATOM      7  C   UNL     1      -0.990  -2.309  -2.776  0.00  0.00    +0.007 C 
ATOM      8  C   UNL     1       0.287  -2.126  -2.399  0.00  0.00    -0.002 C 
ATOM      9  C   UNL     1       0.888  -0.913  -1.875  0.00  0.00    +0.003 C 
ATOM     10  C   UNL     1       0.683   0.319  -2.365  0.00  0.00    +0.045 C 
ATOM     11  C   UNL     1       1.260   1.580  -1.947  0.00  0.00    +0.117 C 
ATOM     12  C   UNL     1       1.690   1.970  -0.734  0.00  0.00    +0.055 C 
ATOM     13  C   UNL     1       1.771   1.218   0.522  0.00  0.00    +0.017 C 
ATOM     14  C   UNL     1       2.912   0.550   0.811  0.00  0.00    +0.092 C 
ATOM     15 CL   UNL     1       4.282   0.494  -0.259  0.00  0.00    -0.079 Cl
ATOM     16  C   UNL     1       3.088  -0.166   2.112  0.00  0.00    +0.182 C 
ATOM     17  O   UNL     1       4.064  -0.892   2.313  0.00  0.00    -0.291 OA
ATOM     18  C   UNL     1       2.066   0.051   3.209  0.00  0.00    +0.154 C 
ATOM     19  C   UNL     1       0.824   0.751   2.753  0.00  0.00    +0.116 C 
ATOM     20  C   UNL     1       0.680   1.235   1.502  0.00  0.00    +0.105 C 
ATOM     21  C   UNL     1      -0.654   1.799   1.182  0.00  0.00    +0.343 C 
ATOM     22  O   UNL     1      -1.166   2.707   1.821  0.00  0.00    -0.245 OA
ATOM     23  O   UNL     1      -1.247   1.036   0.238  0.00  0.00    -0.458 OA
ENDROOT
BRANCH  11  24
ATOM     24  O   UNL     1       1.265   2.478  -3.002  0.00  0.00    -0.507 OA
ATOM     25  H   UNL     1       1.713   3.296  -2.731  0.00  0.00    +0.292 HD
ENDBRANCH  11  24
BRANCH  19  26
ATOM     26  O   UNL     1      -0.144   0.840   3.740  0.00  0.00    -0.510 OA
ATOM     27  H   UNL     1      -0.797   1.536   3.515  0.00  0.00    +0.292 HD
ENDBRANCH  19  26
TORSDOF 2
