REMARK  Name = 
REMARK  2 active torsions:
REMARK  status: ('A' for Active; 'I' for Inactive)
REMARK    1  A    between atoms: C_1  and  C_2
REMARK    2  A    between atoms: C_20  and  O_21
REMARK                            x       y       z     vdW  Elec       q    Type
REMARK                         _______ _______ _______ _____ _____    ______ ____
ROOT
ATOM      1  C   UNL     1       2.929   0.174  -0.013  0.00  0.00    +0.052 C 
ATOM      2  C   UNL     1       1.667  -0.004   0.826  0.00  0.00    +0.176 C 
ATOM      3  C   UNL     1       1.388  -1.474   1.182  0.00  0.00    +0.079 C 
ATOM      4  C   UNL     1       1.353  -2.409   0.009  0.00  0.00    +0.155 C 
ATOM      5  O   UNL     1       2.349  -3.434   0.035  0.00  0.00    -0.364 OA
ATOM      6  C   UNL     1       0.990  -3.861   0.241  0.00  0.00    +0.170 C 
ATOM      7  C   UNL     1       0.281  -4.647  -0.778  0.00  0.00    +0.007 C 
ATOM      8  C   UNL     1      -0.797  -4.327  -1.512  0.00  0.00    -0.002 C 
ATOM      9  C   UNL     1      -1.483  -3.058  -1.490  0.00  0.00    +0.003 C 
ATOM     10  C   UNL     1      -2.044  -2.518  -0.399  0.00  0.00    +0.046 C 
ATOM     11  C   UNL     1      -2.636  -1.153  -0.405  0.00  0.00    +0.160 C 
ATOM     12  O   UNL     1      -3.523  -0.887   0.403  0.00  0.00    -0.292 OA
ATOM     13  C   UNL     1      -2.092  -0.136  -1.405  0.00  0.00    +0.116 C 
ATOM     14  C   UNL     1      -2.307   1.300  -0.959  0.00  0.00    -0.001 C 
ATOM     15  C   UNL     1      -3.251   2.091  -1.510  0.00  0.00    +0.088 C 
ATOM     16 CL   UNL     1      -4.353   1.549  -2.732  0.00  0.00    -0.080 Cl
ATOM     17  C   UNL     1      -3.394   3.525  -1.107  0.00  0.00    +0.182 C 
ATOM     18  O   UNL     1      -4.277   4.242  -1.581  0.00  0.00    -0.291 OA
ATOM     19  C   UNL     1      -2.401   4.112  -0.124  0.00  0.00    +0.154 C 
ATOM     20  C   UNL     1      -1.449   3.116   0.462  0.00  0.00    +0.116 C 
ATOM     21  C   UNL     1      -1.422   1.822   0.091  0.00  0.00    +0.102 C 
ATOM     22  C   UNL     1      -0.495   0.958   0.872  0.00  0.00    +0.343 C 
ATOM     23  O   UNL     1      -0.679   0.637   2.036  0.00  0.00    -0.245 OA
ATOM     24  O   UNL     1       0.572   0.605   0.105  0.00  0.00    -0.458 OA
ENDROOT
BRANCH  20  25
ATOM     25  O   UNL     1      -0.584   3.610   1.425  0.00  0.00    -0.510 OA
ATOM     26  H   UNL     1      -0.854   4.509   1.686  0.00  0.00    +0.292 HD
ENDBRANCH  20  25
TORSDOF 1
