REMARK  Name = 
REMARK  3 active torsions:
REMARK  status: ('A' for Active; 'I' for Inactive)
REMARK    1  A    between atoms: C_1  and  C_2
REMARK    2  A    between atoms: C_17  and  O_18
REMARK    3  A    between atoms: C_20  and  O_21
REMARK                            x       y       z     vdW  Elec       q    Type
REMARK                         _______ _______ _______ _____ _____    ______ ____
ROOT
ATOM      1  C   UNL     1      -2.470   2.589  -1.151  0.00  0.00    +0.052 C 
ATOM      2  C   UNL     1      -1.808   1.780  -0.042  0.00  0.00    +0.176 C 
ATOM      3  C   UNL     1      -0.818   2.656   0.757  0.00  0.00    +0.079 C 
ATOM      4  C   UNL     1      -0.269   1.974   1.990  0.00  0.00    +0.155 C 
ATOM      5  O   UNL     1      -0.025   0.589   1.779  0.00  0.00    -0.364 OA
ATOM      6  C   UNL     1       1.133   1.411   1.972  0.00  0.00    +0.170 C 
ATOM      7  C   UNL     1       1.977   1.107   3.123  0.00  0.00    +0.007 C 
ATOM      8  C   UNL     1       2.465  -0.110   3.433  0.00  0.00    -0.002 C 
ATOM      9  C   UNL     1       2.150  -1.365   2.770  0.00  0.00    +0.003 C 
ATOM     10  C   UNL     1       2.150  -1.685   1.464  0.00  0.00    +0.046 C 
ATOM     11  C   UNL     1       2.563  -0.782   0.354  0.00  0.00    +0.160 C 
ATOM     12  O   UNL     1       3.642  -0.189   0.421  0.00  0.00    -0.292 OA
ATOM     13  C   UNL     1       1.621  -0.534  -0.822  0.00  0.00    +0.116 C 
ATOM     14  C   UNL     1       0.692  -1.660  -1.232  0.00  0.00    -0.001 A 
ATOM     15  C   UNL     1       1.253  -2.794  -1.876  0.00  0.00    +0.087 A 
ATOM     16 CL   UNL     1       2.956  -2.907  -2.208  0.00  0.00    -0.079 Cl
ATOM     17  C   UNL     1       0.459  -3.880  -2.265  0.00  0.00    +0.139 A 
ATOM     18  C   UNL     1      -0.900  -3.883  -2.017  0.00  0.00    +0.093 A 
ATOM     19  C   UNL     1      -1.476  -2.790  -1.381  0.00  0.00    +0.135 A 
ATOM     20  C   UNL     1      -0.714  -1.656  -1.004  0.00  0.00    +0.105 A 
ATOM     21  C   UNL     1      -1.501  -0.563  -0.355  0.00  0.00    +0.343 C 
ATOM     22  O   UNL     1      -2.481  -0.837   0.330  0.00  0.00    -0.245 OA
ATOM     23  O   UNL     1      -1.099   0.686  -0.689  0.00  0.00    -0.458 OA
ENDROOT
BRANCH  17  24
ATOM     24  O   UNL     1       0.981  -4.981  -2.888  0.00  0.00    -0.505 OA
ATOM     25  H   UNL     1       1.938  -4.829  -3.007  0.00  0.00    +0.292 HD
ENDBRANCH  17  24
BRANCH  19  26
ATOM     26  O   UNL     1      -2.826  -2.909  -1.151  0.00  0.00    -0.506 OA
ATOM     27  H   UNL     1      -3.096  -2.242  -0.481  0.00  0.00    +0.292 HD
ENDBRANCH  19  26
TORSDOF 2
