REMARK  Name = 
REMARK  3 active torsions:
REMARK  status: ('A' for Active; 'I' for Inactive)
REMARK    1  A    between atoms: C_1  and  C_2
REMARK    2  A    between atoms: C_17  and  O_18
REMARK    3  A    between atoms: C_23  and  O_24
REMARK                            x       y       z     vdW  Elec       q    Type
REMARK                         _______ _______ _______ _____ _____    ______ ____
ROOT
ATOM      1  C   UNL     1       1.120   1.320  -0.749  0.00  0.00    +0.052 C 
ATOM      2  C   UNL     1       1.250   1.326   0.777  0.00  0.00    +0.176 C 
ATOM      3  C   UNL     1       2.613   0.728   1.226  0.00  0.00    +0.079 C 
ATOM      4  C   UNL     1       2.580  -0.768   1.261  0.00  0.00    +0.155 C 
ATOM      5  O   UNL     1       2.616  -1.348  -0.048  0.00  0.00    -0.364 OA
ATOM      6  C   UNL     1       3.660  -1.746   0.844  0.00  0.00    +0.170 C 
ATOM      7  C   UNL     1       3.642  -3.058   1.524  0.00  0.00    +0.007 C 
ATOM      8  C   UNL     1       2.939  -4.166   1.227  0.00  0.00    -0.002 C 
ATOM      9  C   UNL     1       2.041  -4.340   0.108  0.00  0.00    +0.003 C 
ATOM     10  C   UNL     1       0.737  -4.032   0.042  0.00  0.00    +0.046 C 
ATOM     11  C   UNL     1      -0.062  -3.482   1.172  0.00  0.00    +0.160 C 
ATOM     12  O   UNL     1      -0.341  -4.188   2.139  0.00  0.00    -0.292 OA
ATOM     13  C   UNL     1      -0.490  -2.018   1.064  0.00  0.00    +0.116 C 
ATOM     14  C   UNL     1      -1.904  -1.503   0.866  0.00  0.00    -0.001 C 
ATOM     15  C   UNL     1      -2.984  -2.264   0.565  0.00  0.00    +0.087 C 
ATOM     16 CL   UNL     1      -2.898  -3.976   0.276  0.00  0.00    -0.079 Cl
ATOM     17  C   UNL     1      -4.314  -1.689   0.412  0.00  0.00    +0.139 C 
ATOM     18  C   UNL     1      -4.557  -0.384   0.515  0.00  0.00    +0.098 C 
ATOM     19  C   UNL     1      -3.465   0.558   0.791  0.00  0.00    +0.197 C 
ATOM     20  O   UNL     1      -3.717   1.760   0.861  0.00  0.00    -0.287 OA
ATOM     21  C   UNL     1      -2.073  -0.003   0.974  0.00  0.00    +0.106 C 
ATOM     22  C   UNL     1      -1.096   0.930   1.188  0.00  0.00    +0.291 C 
ATOM     23  O   UNL     1       0.210   0.549   1.400  0.00  0.00    -0.461 OA
ENDROOT
BRANCH  17  24
ATOM     24  O   UNL     1      -5.372  -2.544   0.155  0.00  0.00    -0.505 OA
ATOM     25  H   UNL     1      -5.027  -3.458   0.158  0.00  0.00    +0.292 HD
ENDBRANCH  17  24
BRANCH  22  26
ATOM     26  O   UNL     1      -1.323   2.294   1.245  0.00  0.00    -0.480 OA
ATOM     27  H   UNL     1      -2.284   2.466   1.137  0.00  0.00    +0.295 HD
ENDBRANCH  22  26
TORSDOF 2
