REMARK  Name = 
REMARK  3 active torsions:
REMARK  status: ('A' for Active; 'I' for Inactive)
REMARK    1  A    between atoms: C_1  and  C_2
REMARK    2  A    between atoms: C_17  and  O_18
REMARK    3  A    between atoms: C_20  and  O_21
REMARK                            x       y       z     vdW  Elec       q    Type
REMARK                         _______ _______ _______ _____ _____    ______ ____
ROOT
ATOM      1  C   UNL     1       2.487   1.768   2.644  0.00  0.00    +0.052 C 
ATOM      2  C   UNL     1       1.463   1.848   1.517  0.00  0.00    +0.176 C 
ATOM      3  C   UNL     1       0.143   2.465   2.019  0.00  0.00    +0.079 C 
ATOM      4  C   UNL     1      -0.823   2.784   0.901  0.00  0.00    +0.155 C 
ATOM      5  O   UNL     1      -0.842   1.776  -0.104  0.00  0.00    -0.364 OA
ATOM      6  C   UNL     1      -2.035   1.905   0.677  0.00  0.00    +0.170 C 
ATOM      7  C   UNL     1      -3.241   2.281  -0.051  0.00  0.00    +0.007 C 
ATOM      8  C   UNL     1      -4.219   1.448  -0.451  0.00  0.00    -0.002 C 
ATOM      9  C   UNL     1      -4.362   0.040  -0.137  0.00  0.00    +0.003 C 
ATOM     10  C   UNL     1      -3.487  -0.976  -0.221  0.00  0.00    +0.046 C 
ATOM     11  C   UNL     1      -2.079  -0.928  -0.715  0.00  0.00    +0.160 C 
ATOM     12  O   UNL     1      -1.839  -0.585  -1.869  0.00  0.00    -0.292 OA
ATOM     13  C   UNL     1      -1.008  -1.365   0.281  0.00  0.00    +0.116 C 
ATOM     14  C   UNL     1       0.233  -1.952  -0.362  0.00  0.00    -0.001 A 
ATOM     15  C   UNL     1       0.185  -3.291  -0.829  0.00  0.00    +0.087 A 
ATOM     16 CL   UNL     1      -1.236  -4.276  -0.629  0.00  0.00    -0.079 Cl
ATOM     17  C   UNL     1       1.282  -3.877  -1.473  0.00  0.00    +0.139 A 
ATOM     18  C   UNL     1       2.440  -3.155  -1.695  0.00  0.00    +0.093 A 
ATOM     19  C   UNL     1       2.502  -1.832  -1.274  0.00  0.00    +0.135 A 
ATOM     20  C   UNL     1       1.428  -1.217  -0.587  0.00  0.00    +0.105 A 
ATOM     21  C   UNL     1       1.670   0.198  -0.185  0.00  0.00    +0.343 C 
ATOM     22  O   UNL     1       2.340   0.941  -0.895  0.00  0.00    -0.245 OA
ATOM     23  O   UNL     1       1.228   0.488   1.063  0.00  0.00    -0.458 OA
ENDROOT
BRANCH  17  24
ATOM     24  O   UNL     1       1.261  -5.171  -1.919  0.00  0.00    -0.505 OA
ATOM     25  H   UNL     1       0.369  -5.526  -1.746  0.00  0.00    +0.292 HD
ENDBRANCH  17  24
BRANCH  19  26
ATOM     26  O   UNL     1       3.674  -1.182  -1.580  0.00  0.00    -0.506 OA
ATOM     27  H   UNL     1       3.511  -0.213  -1.543  0.00  0.00    +0.292 HD
ENDBRANCH  19  26
TORSDOF 2
