REMARK  Name = 
REMARK  3 active torsions:
REMARK  status: ('A' for Active; 'I' for Inactive)
REMARK    1  A    between atoms: C_1  and  C_2
REMARK    2  A    between atoms: C_17  and  O_18
REMARK    3  A    between atoms: C_23  and  O_24
REMARK                            x       y       z     vdW  Elec       q    Type
REMARK                         _______ _______ _______ _____ _____    ______ ____
ROOT
ATOM      1  C   UNL     1       0.917   3.133   1.803  0.00  0.00    +0.052 C 
ATOM      2  C   UNL     1       0.452   1.715   2.138  0.00  0.00    +0.176 C 
ATOM      3  C   UNL     1       1.553   0.890   2.828  0.00  0.00    +0.079 C 
ATOM      4  C   UNL     1       2.855   0.837   2.082  0.00  0.00    +0.155 C 
ATOM      5  O   UNL     1       4.008   1.199   2.848  0.00  0.00    -0.364 OA
ATOM      6  C   UNL     1       3.898  -0.187   2.485  0.00  0.00    +0.170 C 
ATOM      7  C   UNL     1       4.763  -0.795   1.462  0.00  0.00    +0.007 C 
ATOM      8  C   UNL     1       4.414  -1.352   0.289  0.00  0.00    -0.002 C 
ATOM      9  C   UNL     1       3.068  -1.405  -0.235  0.00  0.00    +0.003 C 
ATOM     10  C   UNL     1       2.029  -1.924   0.434  0.00  0.00    +0.046 C 
ATOM     11  C   UNL     1       0.616  -1.837  -0.023  0.00  0.00    +0.160 C 
ATOM     12  O   UNL     1      -0.210  -2.567   0.525  0.00  0.00    -0.292 OA
ATOM     13  C   UNL     1       0.257  -0.854  -1.135  0.00  0.00    +0.116 C 
ATOM     14  C   UNL     1      -1.242  -0.627  -1.211  0.00  0.00    -0.001 C 
ATOM     15  C   UNL     1      -2.017  -1.389  -2.023  0.00  0.00    +0.087 C 
ATOM     16 CL   UNL     1      -1.362  -2.696  -2.975  0.00  0.00    -0.079 Cl
ATOM     17  C   UNL     1      -3.447  -1.171  -2.155  0.00  0.00    +0.139 C 
ATOM     18  C   UNL     1      -4.076  -0.166  -1.549  0.00  0.00    +0.098 C 
ATOM     19  C   UNL     1      -3.332   0.758  -0.680  0.00  0.00    +0.197 C 
ATOM     20  O   UNL     1      -3.920   1.725  -0.198  0.00  0.00    -0.287 OA
ATOM     21  C   UNL     1      -1.869   0.462  -0.408  0.00  0.00    +0.106 C 
ATOM     22  C   UNL     1      -1.290   1.223   0.564  0.00  0.00    +0.291 C 
ATOM     23  O   UNL     1       0.031   1.018   0.946  0.00  0.00    -0.461 OA
ENDROOT
BRANCH  17  24
ATOM     24  O   UNL     1      -4.171  -2.033  -2.958  0.00  0.00    -0.505 OA
ATOM     25  H   UNL     1      -3.563  -2.727  -3.276  0.00  0.00    +0.292 HD
ENDBRANCH  17  24
BRANCH  22  26
ATOM     26  O   UNL     1      -1.971   2.231   1.233  0.00  0.00    -0.480 OA
ATOM     27  H   UNL     1      -2.876   2.322   0.863  0.00  0.00    +0.295 HD
ENDBRANCH  22  26
TORSDOF 2
