REMARK  Name = 
REMARK  3 active torsions:
REMARK  status: ('A' for Active; 'I' for Inactive)
REMARK    1  A    between atoms: C_1  and  C_2
REMARK    2  A    between atoms: C_17  and  O_18
REMARK    3  A    between atoms: C_20  and  O_21
REMARK                            x       y       z     vdW  Elec       q    Type
REMARK                         _______ _______ _______ _____ _____    ______ ____
ROOT
ATOM      1  C   UNL     1      -2.824   2.668  -0.741  0.00  0.00    +0.052 C 
ATOM      2  C   UNL     1      -2.476   1.598   0.290  0.00  0.00    +0.176 C 
ATOM      3  C   UNL     1      -2.401   2.146   1.725  0.00  0.00    +0.079 C 
ATOM      4  C   UNL     1      -1.512   3.344   1.894  0.00  0.00    +0.155 C 
ATOM      5  O   UNL     1      -2.183   4.522   2.346  0.00  0.00    -0.364 OA
ATOM      6  C   UNL     1      -1.286   3.901   3.284  0.00  0.00    +0.170 C 
ATOM      7  C   UNL     1      -0.019   4.544   3.658  0.00  0.00    +0.007 C 
ATOM      8  C   UNL     1       1.244   4.141   3.439  0.00  0.00    -0.002 C 
ATOM      9  C   UNL     1       1.631   2.960   2.706  0.00  0.00    +0.003 C 
ATOM     10  C   UNL     1       1.266   1.713   3.034  0.00  0.00    +0.046 C 
ATOM     11  C   UNL     1       1.578   0.539   2.173  0.00  0.00    +0.160 C 
ATOM     12  O   UNL     1       1.663  -0.570   2.696  0.00  0.00    -0.292 OA
ATOM     13  C   UNL     1       1.743   0.769   0.679  0.00  0.00    +0.116 C 
ATOM     14  C   UNL     1       1.438  -0.450  -0.168  0.00  0.00    -0.001 A 
ATOM     15  C   UNL     1       2.465  -1.183  -0.800  0.00  0.00    +0.087 A 
ATOM     16 CL   UNL     1       4.132  -0.724  -0.635  0.00  0.00    -0.079 Cl
ATOM     17  C   UNL     1       2.161  -2.313  -1.582  0.00  0.00    +0.139 A 
ATOM     18  C   UNL     1       0.846  -2.737  -1.750  0.00  0.00    +0.093 A 
ATOM     19  C   UNL     1      -0.176  -2.032  -1.121  0.00  0.00    +0.135 A 
ATOM     20  C   UNL     1       0.107  -0.905  -0.331  0.00  0.00    +0.105 A 
ATOM     21  C   UNL     1      -1.036  -0.275   0.368  0.00  0.00    +0.343 C 
ATOM     22  O   UNL     1      -1.700  -0.834   1.224  0.00  0.00    -0.245 OA
ATOM     23  O   UNL     1      -1.238   0.976  -0.123  0.00  0.00    -0.458 OA
ENDROOT
BRANCH  17  24
ATOM     24  O   UNL     1       3.171  -3.004  -2.200  0.00  0.00    -0.505 OA
ATOM     25  H   UNL     1       2.817  -3.796  -2.635  0.00  0.00    +0.292 HD
ENDBRANCH  17  24
BRANCH  19  26
ATOM     26  O   UNL     1      -1.472  -2.428  -1.306  0.00  0.00    -0.506 OA
ATOM     27  H   UNL     1      -1.497  -3.333  -1.659  0.00  0.00    +0.292 HD
ENDBRANCH  19  26
TORSDOF 2
