REMARK  Name = 
REMARK  2 active torsions:
REMARK  status: ('A' for Active; 'I' for Inactive)
REMARK    1  A    between atoms: C_1  and  C_2
REMARK    2  A    between atoms: C_20  and  O_21
REMARK                            x       y       z     vdW  Elec       q    Type
REMARK                         _______ _______ _______ _____ _____    ______ ____
ROOT
ATOM      1  C   UNL     1      -3.832  -0.114  -1.269  0.00  0.00    +0.052 C 
ATOM      2  C   UNL     1      -2.721   0.645  -0.552  0.00  0.00    +0.176 C 
ATOM      3  C   UNL     1      -1.785   1.379  -1.523  0.00  0.00    +0.079 C 
ATOM      4  C   UNL     1      -1.102   0.460  -2.492  0.00  0.00    +0.155 C 
ATOM      5  O   UNL     1      -1.506   0.608  -3.855  0.00  0.00    -0.364 OA
ATOM      6  C   UNL     1      -0.166   1.027  -3.531  0.00  0.00    +0.170 C 
ATOM      7  C   UNL     1       1.009   0.231  -3.902  0.00  0.00    +0.007 C 
ATOM      8  C   UNL     1       2.253   0.313  -3.405  0.00  0.00    -0.002 C 
ATOM      9  C   UNL     1       2.683   1.236  -2.383  0.00  0.00    +0.003 C 
ATOM     10  C   UNL     1       2.474   1.161  -1.060  0.00  0.00    +0.046 C 
ATOM     11  C   UNL     1       1.788   0.059  -0.311  0.00  0.00    +0.160 C 
ATOM     12  O   UNL     1       1.390  -0.962  -0.863  0.00  0.00    -0.292 OA
ATOM     13  C   UNL     1       1.646   0.286   1.194  0.00  0.00    +0.116 C 
ATOM     14  C   UNL     1       0.965  -0.884   1.891  0.00  0.00    -0.001 C 
ATOM     15  C   UNL     1       1.670  -1.889   2.453  0.00  0.00    +0.088 C 
ATOM     16 CL   UNL     1       3.401  -1.966   2.417  0.00  0.00    -0.080 Cl
ATOM     17  C   UNL     1       0.987  -3.024   3.146  0.00  0.00    +0.182 C 
ATOM     18  O   UNL     1       1.630  -3.933   3.676  0.00  0.00    -0.291 OA
ATOM     19  C   UNL     1      -0.527  -3.045   3.205  0.00  0.00    +0.154 C 
ATOM     20  C   UNL     1      -1.192  -1.874   2.550  0.00  0.00    +0.116 C 
ATOM     21  C   UNL     1      -0.504  -0.894   1.933  0.00  0.00    +0.102 C 
ATOM     22  C   UNL     1      -1.304   0.191   1.300  0.00  0.00    +0.343 C 
ATOM     23  O   UNL     1      -1.260   1.360   1.654  0.00  0.00    -0.245 OA
ATOM     24  O   UNL     1      -1.976  -0.307   0.232  0.00  0.00    -0.458 OA
ENDROOT
BRANCH  20  25
ATOM     25  O   UNL     1      -2.575  -1.849   2.628  0.00  0.00    -0.510 OA
ATOM     26  H   UNL     1      -2.900  -2.673   3.033  0.00  0.00    +0.292 HD
ENDBRANCH  20  25
TORSDOF 1
