REMARK  Name = 
REMARK  3 active torsions:
REMARK  status: ('A' for Active; 'I' for Inactive)
REMARK    1  A    between atoms: C_1  and  C_2
REMARK    2  A    between atoms: C_20  and  O_21
REMARK    3  A    between atoms: C_23  and  O_24
REMARK                            x       y       z     vdW  Elec       q    Type
REMARK                         _______ _______ _______ _____ _____    ______ ____
ROOT
ATOM      1  C   UNL     1      -1.429  -2.898   2.128  0.00  0.00    +0.052 C 
ATOM      2  C   UNL     1      -0.348  -2.048   1.455  0.00  0.00    +0.176 C 
ATOM      3  C   UNL     1       0.397  -1.133   2.438  0.00  0.00    +0.079 C 
ATOM      4  C   UNL     1       1.678  -0.535   1.922  0.00  0.00    +0.155 C 
ATOM      5  O   UNL     1       2.749  -1.490   1.894  0.00  0.00    -0.364 OA
ATOM      6  C   UNL     1       2.387  -0.908   0.632  0.00  0.00    +0.170 C 
ATOM      7  C   UNL     1       3.272   0.067  -0.013  0.00  0.00    +0.007 C 
ATOM      8  C   UNL     1       2.965   1.162  -0.724  0.00  0.00    -0.002 C 
ATOM      9  C   UNL     1       1.654   1.690  -1.016  0.00  0.00    +0.003 C 
ATOM     10  C   UNL     1       0.636   1.119  -1.679  0.00  0.00    +0.046 C 
ATOM     11  C   UNL     1       0.623  -0.251  -2.273  0.00  0.00    +0.160 C 
ATOM     12  O   UNL     1       1.671  -0.784  -2.640  0.00  0.00    -0.292 OA
ATOM     13  C   UNL     1      -0.705  -1.000  -2.447  0.00  0.00    +0.116 C 
ATOM     14  C   UNL     1      -2.002  -0.254  -2.160  0.00  0.00    -0.001 C 
ATOM     15  C   UNL     1      -2.856   0.078  -3.161  0.00  0.00    +0.092 C 
ATOM     16 CL   UNL     1      -2.574  -0.289  -4.833  0.00  0.00    -0.079 Cl
ATOM     17  C   UNL     1      -4.123   0.837  -2.906  0.00  0.00    +0.201 C 
ATOM     18  O   UNL     1      -5.006   0.985  -3.744  0.00  0.00    -0.286 OA
ATOM     19  C   UNL     1      -4.256   1.484  -1.591  0.00  0.00    +0.098 C 
ATOM     20  C   UNL     1      -3.413   1.169  -0.608  0.00  0.00    +0.135 C 
ATOM     21  C   UNL     1      -2.390   0.111  -0.756  0.00  0.00    +0.101 C 
ATOM     22  C   UNL     1      -1.857  -0.454   0.365  0.00  0.00    +0.291 C 
ATOM     23  O   UNL     1      -0.829  -1.359   0.288  0.00  0.00    -0.461 OA
ENDROOT
BRANCH  20  24
ATOM     24  O   UNL     1      -3.473   1.877   0.579  0.00  0.00    -0.506 OA
ATOM     25  H   UNL     1      -2.584   1.870   0.989  0.00  0.00    +0.292 HD
ENDBRANCH  20  24
BRANCH  22  26
ATOM     26  O   UNL     1      -2.337  -0.134   1.624  0.00  0.00    -0.480 OA
ATOM     27  H   UNL     1      -3.292   0.062   1.541  0.00  0.00    +0.295 HD
ENDBRANCH  22  26
TORSDOF 2
