REMARK  Name = 
REMARK  3 active torsions:
REMARK  status: ('A' for Active; 'I' for Inactive)
REMARK    1  A    between atoms: C_1  and  C_2
REMARK    2  A    between atoms: C_17  and  O_18
REMARK    3  A    between atoms: C_20  and  O_21
REMARK                            x       y       z     vdW  Elec       q    Type
REMARK                         _______ _______ _______ _____ _____    ______ ____
ROOT
ATOM      1  C   UNL     1      -1.633   1.752  -2.567  0.00  0.00    +0.052 C 
ATOM      2  C   UNL     1      -1.623   1.530  -1.058  0.00  0.00    +0.176 C 
ATOM      3  C   UNL     1      -0.647   2.444  -0.302  0.00  0.00    +0.079 C 
ATOM      4  C   UNL     1       0.742   2.478  -0.873  0.00  0.00    +0.155 C 
ATOM      5  O   UNL     1       1.205   3.785  -1.226  0.00  0.00    -0.364 OA
ATOM      6  C   UNL     1       1.857   3.162  -0.105  0.00  0.00    +0.170 C 
ATOM      7  C   UNL     1       3.242   2.677  -0.203  0.00  0.00    +0.007 C 
ATOM      8  C   UNL     1       3.710   1.420  -0.115  0.00  0.00    -0.002 C 
ATOM      9  C   UNL     1       2.892   0.241   0.053  0.00  0.00    +0.003 C 
ATOM     10  C   UNL     1       2.041   0.070   1.074  0.00  0.00    +0.046 C 
ATOM     11  C   UNL     1       1.081  -1.061   1.164  0.00  0.00    +0.160 C 
ATOM     12  O   UNL     1       0.574  -1.302   2.258  0.00  0.00    -0.292 OA
ATOM     13  C   UNL     1       0.726  -1.831  -0.101  0.00  0.00    +0.116 C 
ATOM     14  C   UNL     1      -0.585  -2.591   0.011  0.00  0.00    -0.001 A 
ATOM     15  C   UNL     1      -0.612  -4.006  -0.031  0.00  0.00    +0.087 A 
ATOM     16 CL   UNL     1       0.833  -4.931  -0.310  0.00  0.00    -0.079 Cl
ATOM     17  C   UNL     1      -1.816  -4.709   0.155  0.00  0.00    +0.139 A 
ATOM     18  C   UNL     1      -3.004  -4.033   0.403  0.00  0.00    +0.093 A 
ATOM     19  C   UNL     1      -2.995  -2.645   0.451  0.00  0.00    +0.135 A 
ATOM     20  C   UNL     1      -1.814  -1.912   0.222  0.00  0.00    +0.105 A 
ATOM     21  C   UNL     1      -1.961  -0.434   0.230  0.00  0.00    +0.343 C 
ATOM     22  O   UNL     1      -2.717   0.133   1.006  0.00  0.00    -0.245 OA
ATOM     23  O   UNL     1      -1.308   0.139  -0.812  0.00  0.00    -0.458 OA
ENDROOT
BRANCH  17  24
ATOM     24  O   UNL     1      -1.826  -6.078   0.102  0.00  0.00    -0.505 OA
ATOM     25  H   UNL     1      -2.719  -6.405   0.299  0.00  0.00    +0.292 HD
ENDBRANCH  17  24
BRANCH  19  26
ATOM     26  O   UNL     1      -4.204  -2.058   0.734  0.00  0.00    -0.506 OA
ATOM     27  H   UNL     1      -4.045  -1.137   1.038  0.00  0.00    +0.292 HD
ENDBRANCH  19  26
TORSDOF 2
