REMARK  Name = 
REMARK  4 active torsions:
REMARK  status: ('A' for Active; 'I' for Inactive)
REMARK    1  A    between atoms: C_1  and  C_2
REMARK    2  A    between atoms: C_11  and  O_12
REMARK    3  A    between atoms: C_17  and  O_18
REMARK    4  A    between atoms: C_23  and  O_24
REMARK                            x       y       z     vdW  Elec       q    Type
REMARK                         _______ _______ _______ _____ _____    ______ ____
ROOT
ATOM      1  C   UNL     1       0.375  -0.594  -3.400  0.00  0.00    +0.052 C 
ATOM      2  C   UNL     1       0.430   0.182  -2.075  0.00  0.00    +0.176 C 
ATOM      3  C   UNL     1       0.394   1.687  -2.400  0.00  0.00    +0.079 C 
ATOM      4  C   UNL     1      -0.048   2.531  -1.243  0.00  0.00    +0.155 C 
ATOM      5  O   UNL     1      -0.496   3.831  -1.649  0.00  0.00    -0.364 OA
ATOM      6  C   UNL     1      -1.489   2.957  -1.081  0.00  0.00    +0.170 C 
ATOM      7  C   UNL     1      -2.047   3.234   0.246  0.00  0.00    +0.007 C 
ATOM      8  C   UNL     1      -2.520   2.363   1.152  0.00  0.00    -0.002 C 
ATOM      9  C   UNL     1      -2.514   0.929   1.006  0.00  0.00    +0.003 C 
ATOM     10  C   UNL     1      -1.475   0.095   1.185  0.00  0.00    +0.045 C 
ATOM     11  C   UNL     1      -0.119   0.392   1.621  0.00  0.00    +0.117 C 
ATOM     12  C   UNL     1       0.924  -0.454   1.546  0.00  0.00    +0.055 C 
ATOM     13  C   UNL     1       0.952  -1.830   1.034  0.00  0.00    +0.018 C 
ATOM     14  C   UNL     1       0.396  -2.839   1.755  0.00  0.00    +0.091 C 
ATOM     15 CL   UNL     1      -0.420  -2.576   3.278  0.00  0.00    -0.079 Cl
ATOM     16  C   UNL     1       0.511  -4.230   1.340  0.00  0.00    +0.139 C 
ATOM     17  C   UNL     1       1.378  -4.623   0.406  0.00  0.00    +0.098 C 
ATOM     18  C   UNL     1       2.219  -3.620  -0.277  0.00  0.00    +0.197 C 
ATOM     19  O   UNL     1       3.234  -3.992  -0.852  0.00  0.00    -0.287 OA
ATOM     20  C   UNL     1       1.732  -2.192  -0.177  0.00  0.00    +0.110 C 
ATOM     21  C   UNL     1       2.024  -1.366  -1.210  0.00  0.00    +0.291 C 
ATOM     22  O   UNL     1       1.617  -0.053  -1.280  0.00  0.00    -0.461 OA
ENDROOT
BRANCH  11  23
ATOM     23  O   UNL     1       0.045   1.644   2.180  0.00  0.00    -0.507 OA
ATOM     24  H   UNL     1       0.971   1.763   2.444  0.00  0.00    +0.292 HD
ENDBRANCH  11  23
BRANCH  16  25
ATOM     25  O   UNL     1      -0.266  -5.173   1.988  0.00  0.00    -0.505 OA
ATOM     26  H   UNL     1      -0.758  -4.722   2.700  0.00  0.00    +0.292 HD
ENDBRANCH  16  25
BRANCH  21  27
ATOM     27  O   UNL     1       2.821  -1.773  -2.254  0.00  0.00    -0.480 OA
ATOM     28  H   UNL     1       3.140  -0.953  -2.667  0.00  0.00    +0.295 HD
ENDBRANCH  21  27
TORSDOF 3
