REMARK  Name = 
REMARK  4 active torsions:
REMARK  status: ('A' for Active; 'I' for Inactive)
REMARK    1  A    between atoms: C_1  and  C_2
REMARK    2  A    between atoms: C_11  and  O_12
REMARK    3  A    between atoms: C_20  and  O_21
REMARK    4  A    between atoms: C_23  and  O_24
REMARK                            x       y       z     vdW  Elec       q    Type
REMARK                         _______ _______ _______ _____ _____    ______ ____
ROOT
ATOM      1  C   UNL     1      -1.057  -1.087   2.874  0.00  0.00    +0.052 C 
ATOM      2  C   UNL     1      -0.780  -0.452   1.513  0.00  0.00    +0.176 C 
ATOM      3  C   UNL     1      -2.076  -0.081   0.740  0.00  0.00    +0.079 C 
ATOM      4  C   UNL     1      -1.701   0.601  -0.533  0.00  0.00    +0.155 C 
ATOM      5  O   UNL     1      -1.893  -0.265  -1.663  0.00  0.00    -0.364 OA
ATOM      6  C   UNL     1      -2.558   0.998  -1.716  0.00  0.00    +0.170 C 
ATOM      7  C   UNL     1      -2.076   2.042  -2.655  0.00  0.00    +0.007 C 
ATOM      8  C   UNL     1      -0.872   2.168  -3.255  0.00  0.00    -0.002 C 
ATOM      9  C   UNL     1       0.271   1.298  -3.034  0.00  0.00    +0.003 C 
ATOM     10  C   UNL     1       1.064   1.422  -1.959  0.00  0.00    +0.045 C 
ATOM     11  C   UNL     1       2.089   0.533  -1.444  0.00  0.00    +0.117 C 
ATOM     12  C   UNL     1       2.091  -0.810  -1.361  0.00  0.00    +0.055 C 
ATOM     13  C   UNL     1       1.187  -1.804  -1.956  0.00  0.00    +0.018 C 
ATOM     14  C   UNL     1       1.362  -2.075  -3.276  0.00  0.00    +0.096 C 
ATOM     15 CL   UNL     1       2.586  -1.326  -4.273  0.00  0.00    -0.079 Cl
ATOM     16  C   UNL     1       0.571  -3.116  -3.990  0.00  0.00    +0.201 C 
ATOM     17  O   UNL     1       0.579  -3.264  -5.208  0.00  0.00    -0.286 OA
ATOM     18  C   UNL     1      -0.216  -4.047  -3.169  0.00  0.00    +0.098 C 
ATOM     19  C   UNL     1      -0.367  -3.836  -1.860  0.00  0.00    +0.135 C 
ATOM     20  C   UNL     1       0.190  -2.637  -1.178  0.00  0.00    +0.105 C 
ATOM     21  C   UNL     1      -0.230  -2.318   0.087  0.00  0.00    +0.291 C 
ATOM     22  O   UNL     1       0.198  -1.180   0.736  0.00  0.00    -0.461 OA
ENDROOT
BRANCH  11  23
ATOM     23  O   UNL     1       3.138   1.204  -0.831  0.00  0.00    -0.507 OA
ATOM     24  H   UNL     1       3.135   2.124  -1.145  0.00  0.00    +0.292 HD
ENDBRANCH  11  23
BRANCH  19  25
ATOM     25  O   UNL     1      -1.077  -4.739  -1.083  0.00  0.00    -0.506 OA
ATOM     26  H   UNL     1      -1.369  -5.478  -1.652  0.00  0.00    +0.292 HD
ENDBRANCH  19  25
BRANCH  21  27
ATOM     27  O   UNL     1      -1.116  -3.109   0.798  0.00  0.00    -0.480 OA
ATOM     28  H   UNL     1      -1.283  -3.908   0.262  0.00  0.00    +0.295 HD
ENDBRANCH  21  27
TORSDOF 3
