REMARK  Name = 
REMARK  3 active torsions:
REMARK  status: ('A' for Active; 'I' for Inactive)
REMARK    1  A    between atoms: C_1  and  C_2
REMARK    2  A    between atoms: C_20  and  O_21
REMARK    3  A    between atoms: C_23  and  O_24
REMARK                            x       y       z     vdW  Elec       q    Type
REMARK                         _______ _______ _______ _____ _____    ______ ____
ROOT
ATOM      1  C   UNL     1      -1.106  -2.189  -3.098  0.00  0.00    +0.052 C 
ATOM      2  C   UNL     1      -1.349  -0.983  -2.183  0.00  0.00    +0.176 C 
ATOM      3  C   UNL     1      -1.662   0.241  -3.099  0.00  0.00    +0.079 C 
ATOM      4  C   UNL     1      -2.180   1.472  -2.394  0.00  0.00    +0.155 C 
ATOM      5  O   UNL     1      -2.242   1.319  -0.990  0.00  0.00    -0.364 OA
ATOM      6  C   UNL     1      -1.261   2.256  -1.494  0.00  0.00    +0.170 C 
ATOM      7  C   UNL     1      -1.415   3.625  -1.022  0.00  0.00    +0.007 C 
ATOM      8  C   UNL     1      -0.586   4.336  -0.239  0.00  0.00    -0.002 C 
ATOM      9  C   UNL     1       0.757   4.058   0.234  0.00  0.00    +0.003 C 
ATOM     10  C   UNL     1       1.321   3.135   1.032  0.00  0.00    +0.046 C 
ATOM     11  C   UNL     1       0.850   1.902   1.740  0.00  0.00    +0.160 C 
ATOM     12  O   UNL     1       1.426   1.578   2.780  0.00  0.00    -0.292 OA
ATOM     13  C   UNL     1      -0.225   1.058   1.092  0.00  0.00    +0.116 C 
ATOM     14  C   UNL     1      -0.409  -0.335   1.645  0.00  0.00    -0.001 C 
ATOM     15  C   UNL     1      -1.024  -0.531   2.834  0.00  0.00    +0.092 C 
ATOM     16 CL   UNL     1      -1.769   0.736   3.749  0.00  0.00    -0.079 Cl
ATOM     17  C   UNL     1      -1.034  -1.878   3.477  0.00  0.00    +0.201 C 
ATOM     18  O   UNL     1      -1.749  -2.181   4.426  0.00  0.00    -0.286 OA
ATOM     19  C   UNL     1      -0.060  -2.864   2.960  0.00  0.00    +0.098 C 
ATOM     20  C   UNL     1       0.503  -2.674   1.761  0.00  0.00    +0.135 C 
ATOM     21  C   UNL     1       0.116  -1.526   0.905  0.00  0.00    +0.101 C 
ATOM     22  C   UNL     1       0.203  -1.636  -0.460  0.00  0.00    +0.291 C 
ATOM     23  O   UNL     1      -0.212  -0.657  -1.344  0.00  0.00    -0.461 OA
ENDROOT
BRANCH  20  24
ATOM     24  O   UNL     1       1.438  -3.555   1.249  0.00  0.00    -0.506 OA
ATOM     25  H   UNL     1       1.663  -4.202   1.944  0.00  0.00    +0.292 HD
ENDBRANCH  20  24
BRANCH  22  26
ATOM     26  O   UNL     1       0.799  -2.730  -1.065  0.00  0.00    -0.480 OA
ATOM     27  H   UNL     1       1.224  -3.257  -0.359  0.00  0.00    +0.295 HD
ENDBRANCH  22  26
TORSDOF 2
