REMARK  Name = 
REMARK  4 active torsions:
REMARK  status: ('A' for Active; 'I' for Inactive)
REMARK    1  A    between atoms: C_1  and  C_2
REMARK    2  A    between atoms: C_11  and  O_12
REMARK    3  A    between atoms: C_20  and  O_21
REMARK    4  A    between atoms: C_23  and  O_24
REMARK                            x       y       z     vdW  Elec       q    Type
REMARK                         _______ _______ _______ _____ _____    ______ ____
ROOT
ATOM      1  C   UNL     1      -0.172   3.202  -1.004  0.00  0.00    +0.052 C 
ATOM      2  C   UNL     1      -0.576   1.990  -0.166  0.00  0.00    +0.176 C 
ATOM      3  C   UNL     1      -0.662   2.310   1.335  0.00  0.00    +0.079 C 
ATOM      4  C   UNL     1      -1.281   1.198   2.134  0.00  0.00    +0.155 C 
ATOM      5  O   UNL     1      -1.979   1.673   3.292  0.00  0.00    -0.364 OA
ATOM      6  C   UNL     1      -2.777   1.048   2.269  0.00  0.00    +0.170 C 
ATOM      7  C   UNL     1      -3.407  -0.252   2.534  0.00  0.00    +0.007 C 
ATOM      8  C   UNL     1      -3.553  -1.309   1.721  0.00  0.00    -0.002 C 
ATOM      9  C   UNL     1      -3.025  -1.415   0.383  0.00  0.00    +0.003 C 
ATOM     10  C   UNL     1      -1.732  -1.693   0.147  0.00  0.00    +0.045 C 
ATOM     11  C   UNL     1      -1.088  -1.784  -1.150  0.00  0.00    +0.117 C 
ATOM     12  C   UNL     1       0.240  -1.804  -1.349  0.00  0.00    +0.055 C 
ATOM     13  C   UNL     1       1.309  -1.793  -0.340  0.00  0.00    +0.018 C 
ATOM     14  C   UNL     1       1.690  -2.978   0.198  0.00  0.00    +0.096 C 
ATOM     15 CL   UNL     1       0.935  -4.498  -0.181  0.00  0.00    -0.079 Cl
ATOM     16  C   UNL     1       2.854  -3.078   1.127  0.00  0.00    +0.201 C 
ATOM     17  O   UNL     1       3.131  -4.086   1.769  0.00  0.00    -0.286 OA
ATOM     18  C   UNL     1       3.748  -1.906   1.220  0.00  0.00    +0.098 C 
ATOM     19  C   UNL     1       3.370  -0.731   0.709  0.00  0.00    +0.135 C 
ATOM     20  C   UNL     1       2.041  -0.551   0.089  0.00  0.00    +0.105 C 
ATOM     21  C   UNL     1       1.491   0.692  -0.035  0.00  0.00    +0.291 C 
ATOM     22  O   UNL     1       0.207   0.839  -0.505  0.00  0.00    -0.461 OA
ENDROOT
BRANCH  11  23
ATOM     23  O   UNL     1      -1.911  -1.873  -2.258  0.00  0.00    -0.507 OA
ATOM     24  H   UNL     1      -2.746  -2.282  -1.978  0.00  0.00    +0.292 HD
ENDBRANCH  11  23
BRANCH  19  25
ATOM     25  O   UNL     1       4.193   0.380   0.769  0.00  0.00    -0.506 OA
ATOM     26  H   UNL     1       5.047   0.116   1.161  0.00  0.00    +0.292 HD
ENDBRANCH  19  25
BRANCH  21  27
ATOM     27  O   UNL     1       2.167   1.844   0.320  0.00  0.00    -0.480 OA
ATOM     28  H   UNL     1       3.089   1.587   0.518  0.00  0.00    +0.295 HD
ENDBRANCH  21  27
TORSDOF 3
