REMARK  Name = 
REMARK  3 active torsions:
REMARK  status: ('A' for Active; 'I' for Inactive)
REMARK    1  A    between atoms: C_1  and  C_2
REMARK    2  A    between atoms: C_20  and  O_21
REMARK    3  A    between atoms: C_23  and  O_24
REMARK                            x       y       z     vdW  Elec       q    Type
REMARK                         _______ _______ _______ _____ _____    ______ ____
ROOT
ATOM      1  C   UNL     1       1.287  -1.481  -2.767  0.00  0.00    +0.052 C 
ATOM      2  C   UNL     1       0.912  -0.121  -2.175  0.00  0.00    +0.176 C 
ATOM      3  C   UNL     1       2.146   0.703  -1.743  0.00  0.00    +0.079 C 
ATOM      4  C   UNL     1       1.892   2.169  -1.492  0.00  0.00    +0.155 C 
ATOM      5  O   UNL     1       0.544   2.603  -1.675  0.00  0.00    -0.364 OA
ATOM      6  C   UNL     1       1.042   2.593  -0.325  0.00  0.00    +0.170 C 
ATOM      7  C   UNL     1       1.253   3.843   0.403  0.00  0.00    +0.007 C 
ATOM      8  C   UNL     1       0.322   4.761   0.710  0.00  0.00    -0.002 C 
ATOM      9  C   UNL     1      -1.066   4.758   0.296  0.00  0.00    +0.003 C 
ATOM     10  C   UNL     1      -1.986   3.783   0.383  0.00  0.00    +0.046 C 
ATOM     11  C   UNL     1      -1.780   2.432   0.982  0.00  0.00    +0.160 C 
ATOM     12  O   UNL     1      -1.275   2.313   2.096  0.00  0.00    -0.292 OA
ATOM     13  C   UNL     1      -2.249   1.250   0.129  0.00  0.00    +0.116 C 
ATOM     14  C   UNL     1      -2.153  -0.060   0.900  0.00  0.00    -0.001 C 
ATOM     15  C   UNL     1      -3.214  -0.526   1.601  0.00  0.00    +0.092 C 
ATOM     16 CL   UNL     1      -4.782   0.211   1.585  0.00  0.00    -0.079 Cl
ATOM     17  C   UNL     1      -3.071  -1.675   2.547  0.00  0.00    +0.201 C 
ATOM     18  O   UNL     1      -4.020  -2.286   3.027  0.00  0.00    -0.286 OA
ATOM     19  C   UNL     1      -1.698  -2.021   2.968  0.00  0.00    +0.098 C 
ATOM     20  C   UNL     1      -0.657  -1.578   2.256  0.00  0.00    +0.135 C 
ATOM     21  C   UNL     1      -0.855  -0.804   1.009  0.00  0.00    +0.101 C 
ATOM     22  C   UNL     1       0.097  -0.829   0.029  0.00  0.00    +0.291 C 
ATOM     23  O   UNL     1      -0.131  -0.234  -1.189  0.00  0.00    -0.461 OA
ENDROOT
BRANCH  20  24
ATOM     24  O   UNL     1       0.647  -1.862   2.620  0.00  0.00    -0.506 OA
ATOM     25  H   UNL     1       0.634  -2.269   3.507  0.00  0.00    +0.292 HD
ENDBRANCH  20  24
BRANCH  22  26
ATOM     26  O   UNL     1       1.299  -1.493   0.191  0.00  0.00    -0.480 OA
ATOM     27  H   UNL     1       1.355  -1.763   1.129  0.00  0.00    +0.295 HD
ENDBRANCH  22  26
TORSDOF 2
