REMARK  Name = 
REMARK  4 active torsions:
REMARK  status: ('A' for Active; 'I' for Inactive)
REMARK    1  A    between atoms: C_1  and  C_2
REMARK    2  A    between atoms: C_11  and  O_12
REMARK    3  A    between atoms: C_17  and  O_18
REMARK    4  A    between atoms: C_20  and  O_21
REMARK                            x       y       z     vdW  Elec       q    Type
REMARK                         _______ _______ _______ _____ _____    ______ ____
ROOT
ATOM      1  C   UNL     1      -3.064  -0.289  -2.469  0.00  0.00    +0.052 C 
ATOM      2  C   UNL     1      -2.173  -1.195  -1.626  0.00  0.00    +0.176 C 
ATOM      3  C   UNL     1      -2.794  -1.517  -0.259  0.00  0.00    +0.079 C 
ATOM      4  C   UNL     1      -2.909  -0.312   0.632  0.00  0.00    +0.155 C 
ATOM      5  O   UNL     1      -4.184  -0.108   1.246  0.00  0.00    -0.364 OA
ATOM      6  C   UNL     1      -3.111  -0.508   2.116  0.00  0.00    +0.170 C 
ATOM      7  C   UNL     1      -2.434   0.423   3.027  0.00  0.00    +0.007 C 
ATOM      8  C   UNL     1      -1.116   0.562   3.258  0.00  0.00    -0.002 C 
ATOM      9  C   UNL     1      -0.025  -0.163   2.634  0.00  0.00    +0.003 C 
ATOM     10  C   UNL     1      -0.017  -1.484   2.408  0.00  0.00    +0.045 C 
ATOM     11  C   UNL     1       1.046  -2.295   1.855  0.00  0.00    +0.117 C 
ATOM     12  C   UNL     1       1.940  -1.991   0.899  0.00  0.00    +0.055 C 
ATOM     13  C   UNL     1       2.120  -0.721   0.168  0.00  0.00    +0.018 A 
ATOM     14  C   UNL     1       3.160   0.158   0.543  0.00  0.00    +0.091 A 
ATOM     15 CL   UNL     1       4.194  -0.212   1.893  0.00  0.00    -0.079 Cl
ATOM     16  C   UNL     1       3.381   1.347  -0.170  0.00  0.00    +0.139 A 
ATOM     17  C   UNL     1       2.595   1.673  -1.272  0.00  0.00    +0.093 A 
ATOM     18  C   UNL     1       1.573   0.808  -1.658  0.00  0.00    +0.135 A 
ATOM     19  C   UNL     1       1.314  -0.374  -0.938  0.00  0.00    +0.109 A 
ATOM     20  C   UNL     1       0.202  -1.258  -1.357  0.00  0.00    +0.344 C 
ATOM     21  O   UNL     1       0.296  -2.460  -1.536  0.00  0.00    -0.245 OA
ATOM     22  O   UNL     1      -0.924  -0.508  -1.418  0.00  0.00    -0.458 OA
ENDROOT
BRANCH  11  23
ATOM     23  O   UNL     1       1.012  -3.571   2.391  0.00  0.00    -0.507 OA
ATOM     24  H   UNL     1       1.688  -4.114   1.952  0.00  0.00    +0.292 HD
ENDBRANCH  11  23
BRANCH  16  25
ATOM     25  O   UNL     1       4.388   2.193   0.211  0.00  0.00    -0.505 OA
ATOM     26  H   UNL     1       4.420   2.968  -0.372  0.00  0.00    +0.292 HD
ENDBRANCH  16  25
BRANCH  18  27
ATOM     27  O   UNL     1       0.842   1.106  -2.777  0.00  0.00    -0.506 OA
ATOM     28  H   UNL     1       1.086   1.980  -3.122  0.00  0.00    +0.292 HD
ENDBRANCH  18  27
TORSDOF 3
