REMARK  Name = 
REMARK  3 active torsions:
REMARK  status: ('A' for Active; 'I' for Inactive)
REMARK    1  A    between atoms: C_1  and  C_2
REMARK    2  A    between atoms: C_20  and  O_21
REMARK    3  A    between atoms: C_23  and  O_24
REMARK                            x       y       z     vdW  Elec       q    Type
REMARK                         _______ _______ _______ _____ _____    ______ ____
ROOT
ATOM      1  C   UNL     1      -3.565  -0.331   1.514  0.00  0.00    +0.052 C 
ATOM      2  C   UNL     1      -2.654  -0.833   0.397  0.00  0.00    +0.176 C 
ATOM      3  C   UNL     1      -2.104  -2.230   0.752  0.00  0.00    +0.079 C 
ATOM      4  C   UNL     1      -1.093  -2.674  -0.257  0.00  0.00    +0.155 C 
ATOM      5  O   UNL     1       0.153  -3.022   0.368  0.00  0.00    -0.364 OA
ATOM      6  C   UNL     1      -0.487  -4.058  -0.380  0.00  0.00    +0.170 C 
ATOM      7  C   UNL     1      -0.036  -4.450  -1.727  0.00  0.00    +0.007 C 
ATOM      8  C   UNL     1       1.135  -4.210  -2.343  0.00  0.00    -0.002 C 
ATOM      9  C   UNL     1       2.283  -3.519  -1.800  0.00  0.00    +0.003 C 
ATOM     10  C   UNL     1       2.420  -2.215  -1.513  0.00  0.00    +0.046 C 
ATOM     11  C   UNL     1       1.396  -1.149  -1.736  0.00  0.00    +0.160 C 
ATOM     12  O   UNL     1       0.740  -1.118  -2.776  0.00  0.00    -0.292 OA
ATOM     13  C   UNL     1       1.233  -0.123  -0.609  0.00  0.00    +0.116 C 
ATOM     14  C   UNL     1       0.815   1.233  -1.150  0.00  0.00    -0.001 C 
ATOM     15  C   UNL     1       1.757   2.155  -1.462  0.00  0.00    +0.092 C 
ATOM     16 CL   UNL     1       3.458   1.922  -1.205  0.00  0.00    -0.079 Cl
ATOM     17  C   UNL     1       1.406   3.433  -2.149  0.00  0.00    +0.201 C 
ATOM     18  O   UNL     1       2.175   4.381  -2.263  0.00  0.00    -0.286 OA
ATOM     19  C   UNL     1       0.077   3.502  -2.781  0.00  0.00    +0.098 C 
ATOM     20  C   UNL     1      -0.860   2.603  -2.465  0.00  0.00    +0.135 C 
ATOM     21  C   UNL     1      -0.626   1.559  -1.433  0.00  0.00    +0.101 C 
ATOM     22  C   UNL     1      -1.696   0.987  -0.798  0.00  0.00    +0.291 C 
ATOM     23  O   UNL     1      -1.547   0.083   0.241  0.00  0.00    -0.461 OA
ENDROOT
BRANCH  20  24
ATOM     24  O   UNL     1      -2.106   2.627  -3.068  0.00  0.00    -0.506 OA
ATOM     25  H   UNL     1      -2.085   3.279  -3.795  0.00  0.00    +0.292 HD
ENDBRANCH  20  24
BRANCH  22  26
ATOM     26  O   UNL     1      -3.004   1.338  -1.103  0.00  0.00    -0.480 OA
ATOM     27  H   UNL     1      -2.975   1.876  -1.919  0.00  0.00    +0.295 HD
ENDBRANCH  22  26
TORSDOF 2
