REMARK  Name = 
REMARK  4 active torsions:
REMARK  status: ('A' for Active; 'I' for Inactive)
REMARK    1  A    between atoms: C_1  and  C_2
REMARK    2  A    between atoms: C_11  and  O_12
REMARK    3  A    between atoms: C_17  and  O_18
REMARK    4  A    between atoms: C_20  and  O_21
REMARK                            x       y       z     vdW  Elec       q    Type
REMARK                         _______ _______ _______ _____ _____    ______ ____
ROOT
ATOM      1  C   UNL     1       1.809  -0.591   3.025  0.00  0.00    +0.052 C 
ATOM      2  C   UNL     1       0.507  -0.245   2.311  0.00  0.00    +0.176 C 
ATOM      3  C   UNL     1      -0.563  -1.330   2.566  0.00  0.00    +0.079 C 
ATOM      4  C   UNL     1      -1.739  -1.254   1.641  0.00  0.00    +0.155 C 
ATOM      5  O   UNL     1      -3.015  -0.904   2.201  0.00  0.00    -0.364 OA
ATOM      6  C   UNL     1      -2.394   0.068   1.350  0.00  0.00    +0.170 C 
ATOM      7  C   UNL     1      -2.789   0.442  -0.012  0.00  0.00    +0.007 C 
ATOM      8  C   UNL     1      -2.924  -0.178  -1.194  0.00  0.00    -0.002 C 
ATOM      9  C   UNL     1      -2.839  -1.553  -1.613  0.00  0.00    +0.003 C 
ATOM     10  C   UNL     1      -1.855  -2.464  -1.643  0.00  0.00    +0.045 C 
ATOM     11  C   UNL     1      -0.488  -2.486  -1.182  0.00  0.00    +0.117 C 
ATOM     12  C   UNL     1       0.486  -1.575  -1.319  0.00  0.00    +0.055 C 
ATOM     13  C   UNL     1       0.451  -0.255  -1.968  0.00  0.00    +0.018 A 
ATOM     14  C   UNL     1       0.415  -0.188  -3.381  0.00  0.00    +0.091 A 
ATOM     15 CL   UNL     1       0.365  -1.611  -4.380  0.00  0.00    -0.079 Cl
ATOM     16  C   UNL     1       0.467   1.047  -4.035  0.00  0.00    +0.139 A 
ATOM     17  C   UNL     1       0.585   2.225  -3.319  0.00  0.00    +0.093 A 
ATOM     18  C   UNL     1       0.636   2.175  -1.927  0.00  0.00    +0.135 A 
ATOM     19  C   UNL     1       0.551   0.952  -1.222  0.00  0.00    +0.109 A 
ATOM     20  C   UNL     1       0.475   1.022   0.283  0.00  0.00    +0.344 C 
ATOM     21  O   UNL     1       0.097   2.015   0.888  0.00  0.00    -0.245 OA
ATOM     22  O   UNL     1       0.807  -0.148   0.896  0.00  0.00    -0.458 OA
ENDROOT
BRANCH  11  23
ATOM     23  O   UNL     1      -0.208  -3.700  -0.574  0.00  0.00    -0.507 OA
ATOM     24  H   UNL     1       0.715  -3.699  -0.273  0.00  0.00    +0.292 HD
ENDBRANCH  11  23
BRANCH  16  25
ATOM     25  O   UNL     1       0.431   1.153  -5.400  0.00  0.00    -0.505 OA
ATOM     26  H   UNL     1       0.351   0.250  -5.761  0.00  0.00    +0.292 HD
ENDBRANCH  16  25
BRANCH  18  27
ATOM     27  O   UNL     1       0.813   3.359  -1.261  0.00  0.00    -0.506 OA
ATOM     28  H   UNL     1       0.727   4.111  -1.869  0.00  0.00    +0.292 HD
ENDBRANCH  18  27
TORSDOF 3
