REMARK  Name = 
REMARK  3 active torsions:
REMARK  status: ('A' for Active; 'I' for Inactive)
REMARK    1  A    between atoms: C_1  and  C_2
REMARK    2  A    between atoms: C_17  and  O_18
REMARK    3  A    between atoms: C_20  and  O_21
REMARK                            x       y       z     vdW  Elec       q    Type
REMARK                         _______ _______ _______ _____ _____    ______ ____
ROOT
ATOM      1  C   UNL     1      -3.610  -0.893  -1.595  0.00  0.00    +0.052 C 
ATOM      2  C   UNL     1      -2.485  -1.047  -0.570  0.00  0.00    +0.176 C 
ATOM      3  C   UNL     1      -3.050  -0.919   0.849  0.00  0.00    +0.079 C 
ATOM      4  C   UNL     1      -2.155  -1.385   1.961  0.00  0.00    +0.155 C 
ATOM      5  O   UNL     1      -1.834  -2.781   1.891  0.00  0.00    -0.364 OA
ATOM      6  C   UNL     1      -0.724  -1.871   1.815  0.00  0.00    +0.170 C 
ATOM      7  C   UNL     1       0.184  -1.683   2.954  0.00  0.00    +0.007 C 
ATOM      8  C   UNL     1       0.787  -0.552   3.352  0.00  0.00    -0.002 C 
ATOM      9  C   UNL     1       0.676   0.721   2.681  0.00  0.00    +0.003 C 
ATOM     10  C   UNL     1       1.278   1.069   1.534  0.00  0.00    +0.046 C 
ATOM     11  C   UNL     1       2.248   0.195   0.811  0.00  0.00    +0.160 C 
ATOM     12  O   UNL     1       3.127  -0.401   1.435  0.00  0.00    -0.292 OA
ATOM     13  C   UNL     1       2.107   0.009  -0.691  0.00  0.00    +0.116 C 
ATOM     14  C   UNL     1       1.468   1.156  -1.448  0.00  0.00    -0.001 A 
ATOM     15  C   UNL     1       2.168   2.356  -1.680  0.00  0.00    +0.087 A 
ATOM     16 CL   UNL     1       3.794   2.579  -1.122  0.00  0.00    -0.079 Cl
ATOM     17  C   UNL     1       1.557   3.421  -2.358  0.00  0.00    +0.139 A 
ATOM     18  C   UNL     1       0.250   3.325  -2.821  0.00  0.00    +0.093 A 
ATOM     19  C   UNL     1      -0.457   2.148  -2.606  0.00  0.00    +0.135 A 
ATOM     20  C   UNL     1       0.140   1.074  -1.925  0.00  0.00    +0.105 A 
ATOM     21  C   UNL     1      -0.643  -0.163  -1.764  0.00  0.00    +0.343 C 
ATOM     22  O   UNL     1      -0.441  -1.177  -2.407  0.00  0.00    -0.245 OA
ATOM     23  O   UNL     1      -1.541   0.027  -0.769  0.00  0.00    -0.458 OA
ENDROOT
BRANCH  17  24
ATOM     24  O   UNL     1       2.208   4.602  -2.594  0.00  0.00    -0.505 OA
ATOM     25  H   UNL     1       3.116   4.515  -2.246  0.00  0.00    +0.292 HD
ENDBRANCH  17  24
BRANCH  19  26
ATOM     26  O   UNL     1      -1.738   2.035  -3.070  0.00  0.00    -0.506 OA
ATOM     27  H   UNL     1      -1.978   2.834  -3.570  0.00  0.00    +0.292 HD
ENDBRANCH  19  26
TORSDOF 2
