REMARK  Name = 
REMARK  15 active torsions:
REMARK  status: ('A' for Active; 'I' for Inactive)
REMARK    1  A    between atoms: C_1  and  O_2
REMARK    2  A    between atoms: O_2  and  C_3
REMARK    3  A    between atoms: C_6  and  C_7
REMARK    4  A    between atoms: C_9  and  O_10
REMARK    5  A    between atoms: O_10  and  C_11
REMARK    6  A    between atoms: C_12  and  O_13
REMARK    7  A    between atoms: C_14  and  C_15
REMARK    8  A    between atoms: C_17  and  C_18
REMARK    9  A    between atoms: C_19  and  O_20
REMARK   10  A    between atoms: O_20  and  C_21
REMARK   11  A    between atoms: C_21  and  O_23
REMARK   12  A    between atoms: C_24  and  O_25
REMARK   13  A    between atoms: O_25  and  C_26
REMARK   14  A    between atoms: C_30  and  C_31
REMARK   15  A    between atoms: C_32  and  O_33
REMARK                            x       y       z     vdW  Elec       q    Type
REMARK                         _______ _______ _______ _____ _____    ______ ____
ROOT
ATOM      1  C   UNL     1       1.780  -0.990  -4.554  0.00  0.00    +0.173 C 
ATOM      2  C   UNL     1       1.977  -1.097  -3.228  0.00  0.00    +0.047 C 
ATOM      3  C   UNL     1       1.393  -2.209  -2.384  0.00  0.00    +0.046 C 
ATOM      4  C   UNL     1       0.336  -1.751  -1.344  0.00  0.00    -0.007 C 
ATOM      5  C   UNL     1      -0.834  -1.029  -2.019  0.00  0.00    +0.008 C 
ATOM      6  C   UNL     1      -0.118  -2.990  -0.532  0.00  0.00    +0.037 C 
ATOM      7  C   UNL     1      -0.990  -2.745   0.724  0.00  0.00    +0.147 C 
ATOM      8  C   UNL     1      -0.274  -1.856   1.777  0.00  0.00    +0.150 C 
ATOM      9  C   UNL     1      -1.141  -1.541   3.028  0.00  0.00    +0.040 C 
ATOM     10  C   UNL     1      -1.660  -2.810   3.724  0.00  0.00    +0.014 C 
ATOM     11  C   UNL     1      -0.366  -0.721   4.051  0.00  0.00    -0.019 C 
ATOM     12  C   UNL     1      -0.209   0.617   4.175  0.00  0.00    -0.033 C 
ATOM     13  C   UNL     1       0.536   1.122   5.396  0.00  0.00    +0.042 C 
ATOM     14  C   UNL     1      -0.737   1.740   3.262  0.00  0.00    +0.236 C 
ATOM     15  C   UNL     1       0.344   2.726   2.689  0.00  0.00    +0.186 C 
ATOM     16  C   UNL     1       1.546   2.034   2.083  0.00  0.00    +0.008 C 
ATOM     17  C   UNL     1       1.939   2.024   0.799  0.00  0.00    -0.001 C 
ATOM     18  C   UNL     1       1.222   2.607  -0.315  0.00  0.00    +0.008 C 
ATOM     19  C   UNL     1       1.742   2.949  -1.509  0.00  0.00    +0.011 C 
ATOM     20  C   UNL     1       0.916   3.540  -2.609  0.00  0.00    +0.049 C 
ATOM     21  C   UNL     1       3.196   2.861  -1.784  0.00  0.00    +0.216 C 
ATOM     22  N   UNL     1       3.909   2.122  -2.554  0.00  0.00    -0.209 NA
ATOM     23  C   UNL     1       3.254   1.122  -3.234  0.00  0.00    +0.118 C 
ATOM     24  C   UNL     1       3.059   1.204  -4.552  0.00  0.00    +0.086 C 
ATOM     25  C   UNL     1       2.362   0.161  -5.315  0.00  0.00    +0.223 C 
ATOM     26  O   UNL     1       2.255   0.287  -6.529  0.00  0.00    -0.284 OA
ATOM     27  C   UNL     1       2.838  -0.119  -2.504  0.00  0.00    +0.211 C 
ATOM     28  O   UNL     1       3.189  -0.322  -1.345  0.00  0.00    -0.285 OA
ENDROOT
BRANCH   7  29
ATOM     29  O   UNL     1      -2.261  -2.177   0.401  0.00  0.00    -0.377 OA
ATOM     30  C   UNL     1      -3.194  -3.113  -0.119  0.00  0.00    +0.194 C 
ENDBRANCH   7  29
BRANCH   8  31
ATOM     31  O   UNL     1       0.944  -2.510   2.168  0.00  0.00    -0.389 OA
ATOM     32  H   UNL     1       1.488  -1.827   2.600  0.00  0.00    +0.210 HD
ENDBRANCH   8  31
BRANCH  21  33
ATOM     33  O   UNL     1       3.844   3.819  -1.098  0.00  0.00    -0.492 OA
ATOM     34  H   UNL     1       4.790   3.715  -1.288  0.00  0.00    +0.294 HD
ENDBRANCH  21  33
BRANCH   1  36
ATOM     35  C   UNL     1       1.493  -2.419  -6.424  0.00  0.00    +0.277 C 
ATOM     36  O   UNL     1       0.969  -1.919  -5.196  0.00  0.00    -0.491 OA
ENDBRANCH   1  36
BRANCH  15  37
ATOM     37  O   UNL     1       0.786   3.595   3.749  0.00  0.00    -0.372 OA
ATOM     38  C   UNL     1       1.384   4.797   3.272  0.00  0.00    +0.195 C 
ENDBRANCH  15  37
BRANCH  14  39
ATOM     39  O   UNL     1      -1.483   1.199   2.154  0.00  0.00    -0.439 OA
BRANCH  39  40
ATOM     40  C   UNL     1      -2.423   1.927   1.535  0.00  0.00    +0.381 C 
ATOM     41  N   UNL     1      -2.894   3.078   1.829  0.00  0.00    -0.233 NA
ATOM     42  H   UNL     1      -2.487   3.445   2.688  0.00  0.00    +0.193 HD
BRANCH  40  43
ATOM     43  O   UNL     1      -2.881   1.313   0.447  0.00  0.00    -0.466 OA
ATOM     44  H   UNL     1      -3.574   1.881   0.077  0.00  0.00    +0.297 HD
ENDBRANCH  40  43
ENDBRANCH  39  40
ENDBRANCH  14  39
TORSDOF 8
