REMARK  Name = 
REMARK  14 active torsions:
REMARK  status: ('A' for Active; 'I' for Inactive)
REMARK    1  A    between atoms: C_1  and  O_2
REMARK    2  A    between atoms: O_2  and  C_3
REMARK    3  A    between atoms: C_6  and  C_7
REMARK    4  A    between atoms: C_9  and  O_10
REMARK    5  A    between atoms: O_10  and  C_11
REMARK    6  A    between atoms: C_12  and  O_13
REMARK    7  A    between atoms: C_14  and  C_15
REMARK    8  A    between atoms: C_17  and  C_18
REMARK    9  A    between atoms: C_19  and  O_20
REMARK   10  A    between atoms: O_20  and  C_21
REMARK   11  A    between atoms: C_24  and  O_25
REMARK   12  A    between atoms: O_25  and  C_26
REMARK   13  A    between atoms: C_30  and  C_31
REMARK   14  A    between atoms: C_37  and  O_38
REMARK                            x       y       z     vdW  Elec       q    Type
REMARK                         _______ _______ _______ _____ _____    ______ ____
ROOT
ATOM      1  C   UNL     1       2.712   2.953   2.981  0.00  0.00    +0.168 C 
ATOM      2  C   UNL     1       1.548   2.285   2.876  0.00  0.00    +0.047 C 
ATOM      3  C   UNL     1       1.121   1.119   3.724  0.00  0.00    +0.046 C 
ATOM      4  C   UNL     1       1.765  -0.224   3.289  0.00  0.00    -0.007 C 
ATOM      5  C   UNL     1       1.219  -1.351   4.172  0.00  0.00    +0.008 C 
ATOM      6  C   UNL     1       1.530  -0.512   1.788  0.00  0.00    +0.037 C 
ATOM      7  C   UNL     1       2.314  -1.710   1.222  0.00  0.00    +0.147 C 
ATOM      8  C   UNL     1       1.935  -2.012  -0.263  0.00  0.00    +0.150 C 
ATOM      9  C   UNL     1       0.762  -3.023  -0.481  0.00  0.00    +0.040 C 
ATOM     10  C   UNL     1      -0.183  -3.264   0.699  0.00  0.00    +0.014 C 
ATOM     11  C   UNL     1       0.096  -2.886  -1.843  0.00  0.00    -0.019 C 
ATOM     12  C   UNL     1      -1.086  -2.354  -2.231  0.00  0.00    -0.033 C 
ATOM     13  C   UNL     1      -1.499  -2.502  -3.678  0.00  0.00    +0.042 C 
ATOM     14  C   UNL     1      -2.085  -1.621  -1.329  0.00  0.00    +0.236 C 
ATOM     15  C   UNL     1      -2.703  -0.314  -1.959  0.00  0.00    +0.186 C 
ATOM     16  C   UNL     1      -3.270   0.610  -0.902  0.00  0.00    +0.008 C 
ATOM     17  C   UNL     1      -3.108   1.938  -0.791  0.00  0.00    -0.001 C 
ATOM     18  C   UNL     1      -2.419   2.790  -1.727  0.00  0.00    +0.008 C 
ATOM     19  C   UNL     1      -1.100   3.029  -1.831  0.00  0.00    +0.013 C 
ATOM     20  C   UNL     1      -0.563   3.967  -2.876  0.00  0.00    +0.049 C 
ATOM     21  C   UNL     1      -0.084   2.403  -0.927  0.00  0.00    +0.264 C 
ATOM     22  O   UNL     1      -0.097   1.221  -0.609  0.00  0.00    -0.268 OA
ATOM     23  N   UNL     1       0.914   3.294  -0.625  0.00  0.00    -0.173 NA
ATOM     24  C   UNL     1       1.276   3.419   0.616  0.00  0.00    +0.107 C 
ATOM     25  C   UNL     1       2.402   4.315   0.965  0.00  0.00    +0.078 C 
ATOM     26  C   UNL     1       3.045   4.083   2.116  0.00  0.00    +0.161 C 
ATOM     27  C   UNL     1       0.621   2.738   1.808  0.00  0.00    +0.209 C 
ATOM     28  O   UNL     1      -0.595   2.647   1.880  0.00  0.00    -0.285 OA
ENDROOT
BRANCH   7  29
ATOM     29  O   UNL     1       3.707  -1.331   1.317  0.00  0.00    -0.377 OA
ATOM     30  C   UNL     1       4.585  -2.444   1.417  0.00  0.00    +0.194 C 
ENDBRANCH   7  29
BRANCH   8  31
ATOM     31  O   UNL     1       1.761  -0.806  -1.021  0.00  0.00    -0.389 OA
ATOM     32  H   UNL     1       0.930  -0.364  -0.748  0.00  0.00    +0.210 HD
ENDBRANCH   8  31
BRANCH  26  33
ATOM     33  O   UNL     1       4.094   4.871   2.540  0.00  0.00    -0.503 OA
ATOM     34  H   UNL     1       4.230   5.595   1.906  0.00  0.00    +0.292 HD
ENDBRANCH  26  33
BRANCH   1  36
ATOM     35  C   UNL     1       4.812   2.037   3.429  0.00  0.00    +0.277 C 
ATOM     36  O   UNL     1       3.622   2.616   3.969  0.00  0.00    -0.491 OA
ENDBRANCH   1  36
BRANCH  15  37
ATOM     37  O   UNL     1      -3.774  -0.678  -2.854  0.00  0.00    -0.372 OA
ATOM     38  C   UNL     1      -4.044   0.304  -3.843  0.00  0.00    +0.195 C 
ENDBRANCH  15  37
BRANCH  14  39
ATOM     39  O   UNL     1      -3.126  -2.589  -1.053  0.00  0.00    -0.440 OA
BRANCH  39  40
ATOM     40  C   UNL     1      -3.633  -2.624   0.190  0.00  0.00    +0.398 C 
ATOM     41  N   UNL     1      -4.623  -3.542   0.248  0.00  0.00    -0.295 N 
ATOM     42  O   UNL     1      -3.288  -1.957   1.151  0.00  0.00    -0.227 OA
ATOM     43  H   UNL     1      -5.112  -3.687   1.117  0.00  0.00    +0.148 HD
ATOM     44  H   UNL     1      -4.873  -4.051  -0.585  0.00  0.00    +0.148 HD
ENDBRANCH  39  40
ENDBRANCH  14  39
TORSDOF 7
