REMARK  Name = 
REMARK  14 active torsions:
REMARK  status: ('A' for Active; 'I' for Inactive)
REMARK    1  A    between atoms: C_1  and  O_2
REMARK    2  A    between atoms: O_2  and  C_3
REMARK    3  A    between atoms: C_6  and  C_7
REMARK    4  A    between atoms: C_9  and  O_10
REMARK    5  A    between atoms: O_10  and  C_11
REMARK    6  A    between atoms: C_12  and  O_13
REMARK    7  A    between atoms: C_14  and  C_15
REMARK    8  A    between atoms: C_17  and  C_18
REMARK    9  A    between atoms: C_19  and  O_20
REMARK   10  A    between atoms: O_20  and  C_21
REMARK   11  A    between atoms: C_24  and  O_25
REMARK   12  A    between atoms: O_25  and  C_26
REMARK   13  A    between atoms: C_30  and  C_31
REMARK   14  A    between atoms: C_37  and  O_38
REMARK                            x       y       z     vdW  Elec       q    Type
REMARK                         _______ _______ _______ _____ _____    ______ ____
ROOT
ATOM      1  C   UNL     1       2.865   3.994  -0.728  0.00  0.00    +0.172 C 
ATOM      2  C   UNL     1       2.555   2.819   0.093  0.00  0.00    +0.065 C 
ATOM      3  C   UNL     1       3.526   1.990   0.538  0.00  0.00    -0.008 C 
ATOM      4  C   UNL     1       3.485   0.698   1.327  0.00  0.00    +0.012 C 
ATOM      5  C   UNL     1       3.342   0.972   2.828  0.00  0.00    +0.012 C 
ATOM      6  C   UNL     1       2.497  -0.386   0.847  0.00  0.00    +0.041 C 
ATOM      7  C   UNL     1       2.891  -1.073  -0.477  0.00  0.00    +0.147 C 
ATOM      8  C   UNL     1       1.987  -2.304  -0.788  0.00  0.00    +0.150 C 
ATOM      9  C   UNL     1       0.473  -2.000  -0.955  0.00  0.00    +0.040 C 
ATOM     10  C   UNL     1       0.071  -1.420  -2.316  0.00  0.00    +0.014 C 
ATOM     11  C   UNL     1      -0.350  -3.255  -0.715  0.00  0.00    -0.019 C 
ATOM     12  C   UNL     1      -1.219  -3.490   0.295  0.00  0.00    -0.033 C 
ATOM     13  C   UNL     1      -1.952  -4.809   0.339  0.00  0.00    +0.042 C 
ATOM     14  C   UNL     1      -1.501  -2.512   1.448  0.00  0.00    +0.236 C 
ATOM     15  C   UNL     1      -2.908  -1.831   1.337  0.00  0.00    +0.186 C 
ATOM     16  C   UNL     1      -3.057  -0.703   2.338  0.00  0.00    +0.008 C 
ATOM     17  C   UNL     1      -3.494   0.549   2.120  0.00  0.00    -0.001 C 
ATOM     18  C   UNL     1      -3.969   1.073   0.861  0.00  0.00    +0.008 C 
ATOM     19  C   UNL     1      -3.242   1.576  -0.155  0.00  0.00    +0.012 C 
ATOM     20  C   UNL     1      -3.900   2.034  -1.424  0.00  0.00    +0.049 C 
ATOM     21  C   UNL     1      -1.746   1.643  -0.087  0.00  0.00    +0.244 C 
ATOM     22  O   UNL     1      -1.093   0.666   0.246  0.00  0.00    -0.270 OA
ATOM     23  N   UNL     1      -1.230   2.838  -0.549  0.00  0.00    -0.279 N 
ATOM     24  C   UNL     1       0.102   3.216  -0.536  0.00  0.00    +0.085 C 
ATOM     25  C   UNL     1       0.524   4.193  -1.359  0.00  0.00    +0.076 C 
ATOM     26  C   UNL     1       1.897   4.641  -1.401  0.00  0.00    +0.161 C 
ATOM     27  C   UNL     1       1.097   2.651   0.456  0.00  0.00    +0.211 C 
ATOM     28  O   UNL     1       0.738   2.253   1.560  0.00  0.00    -0.285 OA
ATOM     29  H   UNL     1      -1.872   3.477  -0.993  0.00  0.00    +0.155 HD
ENDROOT
BRANCH   7  30
ATOM     30  O   UNL     1       2.823  -0.144  -1.571  0.00  0.00    -0.377 OA
ATOM     31  C   UNL     1       4.067   0.015  -2.244  0.00  0.00    +0.194 C 
ENDBRANCH   7  30
BRANCH   8  32
ATOM     32  O   UNL     1       2.494  -2.954  -1.970  0.00  0.00    -0.389 OA
ATOM     33  H   UNL     1       2.518  -2.260  -2.653  0.00  0.00    +0.210 HD
ENDBRANCH   8  32
BRANCH  26  34
ATOM     34  O   UNL     1       2.176   5.728  -2.202  0.00  0.00    -0.503 OA
ATOM     35  H   UNL     1       1.385   5.987  -2.701  0.00  0.00    +0.292 HD
ENDBRANCH  26  34
BRANCH   1  37
ATOM     36  C   UNL     1       4.485   5.460   0.041  0.00  0.00    +0.277 C 
ATOM     37  O   UNL     1       4.199   4.358  -0.820  0.00  0.00    -0.491 OA
ENDBRANCH   1  37
BRANCH  15  38
ATOM     38  O   UNL     1      -3.941  -2.793   1.637  0.00  0.00    -0.372 OA
ATOM     39  C   UNL     1      -5.158  -2.527   0.956  0.00  0.00    +0.195 C 
ENDBRANCH  15  38
BRANCH  14  40
ATOM     40  O   UNL     1      -1.415  -3.230   2.704  0.00  0.00    -0.440 OA
BRANCH  40  41
ATOM     41  C   UNL     1      -0.185  -3.361   3.236  0.00  0.00    +0.398 C 
ATOM     42  N   UNL     1      -0.271  -4.039   4.403  0.00  0.00    -0.295 N 
ATOM     43  O   UNL     1       0.871  -2.954   2.782  0.00  0.00    -0.227 OA
ATOM     44  H   UNL     1      -1.171  -4.357   4.725  0.00  0.00    +0.148 HD
ATOM     45  H   UNL     1       0.570  -4.222   4.926  0.00  0.00    +0.148 HD
ENDBRANCH  40  41
ENDBRANCH  14  40
TORSDOF 7
