REMARK  Name = 
REMARK  14 active torsions:
REMARK  status: ('A' for Active; 'I' for Inactive)
REMARK    1  A    between atoms: C_1  and  O_2
REMARK    2  A    between atoms: O_2  and  C_3
REMARK    3  A    between atoms: C_6  and  C_7
REMARK    4  A    between atoms: C_9  and  O_10
REMARK    5  A    between atoms: O_10  and  C_11
REMARK    6  A    between atoms: C_12  and  O_13
REMARK    7  A    between atoms: C_14  and  C_15
REMARK    8  A    between atoms: C_17  and  C_18
REMARK    9  A    between atoms: C_19  and  O_20
REMARK   10  A    between atoms: O_20  and  C_21
REMARK   11  A    between atoms: C_24  and  O_25
REMARK   12  A    between atoms: O_25  and  C_26
REMARK   13  A    between atoms: C_30  and  C_31
REMARK   14  A    between atoms: C_32  and  O_33
REMARK                            x       y       z     vdW  Elec       q    Type
REMARK                         _______ _______ _______ _____ _____    ______ ____
ROOT
ATOM      1  C   UNL     1       2.056  -3.043   0.502  0.00  0.00    +0.173 C 
ATOM      2  C   UNL     1       1.898  -2.643  -0.775  0.00  0.00    +0.047 C 
ATOM      3  C   UNL     1       2.996  -1.950  -1.566  0.00  0.00    +0.046 C 
ATOM      4  C   UNL     1       2.797  -0.451  -1.945  0.00  0.00    -0.007 C 
ATOM      5  C   UNL     1       1.989  -0.302  -3.240  0.00  0.00    +0.008 C 
ATOM      6  C   UNL     1       2.156   0.433  -0.849  0.00  0.00    +0.037 C 
ATOM      7  C   UNL     1       3.132   1.004   0.195  0.00  0.00    +0.147 C 
ATOM      8  C   UNL     1       2.409   1.867   1.271  0.00  0.00    +0.150 C 
ATOM      9  C   UNL     1       1.254   1.175   2.053  0.00  0.00    +0.040 C 
ATOM     10  C   UNL     1       1.705   0.102   3.050  0.00  0.00    +0.014 C 
ATOM     11  C   UNL     1       0.428   2.209   2.803  0.00  0.00    -0.019 C 
ATOM     12  C   UNL     1      -0.664   2.864   2.351  0.00  0.00    -0.033 C 
ATOM     13  C   UNL     1      -1.365   3.847   3.259  0.00  0.00    +0.042 C 
ATOM     14  C   UNL     1      -1.216   2.741   0.928  0.00  0.00    +0.236 C 
ATOM     15  C   UNL     1      -2.622   2.067   0.843  0.00  0.00    +0.186 C 
ATOM     16  C   UNL     1      -2.542   0.567   1.072  0.00  0.00    +0.008 C 
ATOM     17  C   UNL     1      -2.340  -0.432   0.192  0.00  0.00    -0.001 C 
ATOM     18  C   UNL     1      -2.054  -0.274  -1.218  0.00  0.00    +0.008 C 
ATOM     19  C   UNL     1      -2.060  -1.220  -2.176  0.00  0.00    +0.011 C 
ATOM     20  C   UNL     1      -1.854  -0.882  -3.626  0.00  0.00    +0.049 C 
ATOM     21  C   UNL     1      -2.363  -2.643  -1.912  0.00  0.00    +0.216 C 
ATOM     22  N   UNL     1      -1.789  -3.599  -1.280  0.00  0.00    -0.209 NA
ATOM     23  C   UNL     1      -0.560  -3.385  -0.699  0.00  0.00    +0.118 C 
ATOM     24  C   UNL     1      -0.388  -3.712   0.584  0.00  0.00    +0.086 C 
ATOM     25  C   UNL     1       0.907  -3.626   1.262  0.00  0.00    +0.223 C 
ATOM     26  O   UNL     1       0.990  -4.006   2.425  0.00  0.00    -0.284 OA
ATOM     27  C   UNL     1       0.640  -2.978  -1.505  0.00  0.00    +0.211 C 
ATOM     28  O   UNL     1       0.603  -2.957  -2.732  0.00  0.00    -0.285 OA
ENDROOT
BRANCH   7  29
ATOM     29  O   UNL     1       3.854  -0.044   0.845  0.00  0.00    -0.377 OA
ATOM     30  C   UNL     1       5.261   0.036   0.649  0.00  0.00    +0.194 C 
ENDBRANCH   7  29
BRANCH   8  31
ATOM     31  O   UNL     1       3.399   2.357   2.193  0.00  0.00    -0.389 OA
ATOM     32  H   UNL     1       3.883   1.565   2.496  0.00  0.00    +0.210 HD
ENDBRANCH   8  31
BRANCH  21  33
ATOM     33  O   UNL     1      -3.545  -2.943  -2.483  0.00  0.00    -0.492 OA
ATOM     34  H   UNL     1      -3.711  -3.884  -2.313  0.00  0.00    +0.294 HD
ENDBRANCH  21  33
BRANCH   1  36
ATOM     35  C   UNL     1       3.736  -3.935   1.931  0.00  0.00    +0.277 C 
ATOM     36  O   UNL     1       3.280  -2.851   1.129  0.00  0.00    -0.491 OA
ENDBRANCH   1  36
BRANCH  15  37
ATOM     37  O   UNL     1      -3.219   2.356  -0.434  0.00  0.00    -0.372 OA
ATOM     38  C   UNL     1      -4.638   2.269  -0.423  0.00  0.00    +0.195 C 
ENDBRANCH  15  37
BRANCH  14  39
ATOM     39  O   UNL     1      -1.294   4.088   0.403  0.00  0.00    -0.440 OA
BRANCH  39  40
ATOM     40  C   UNL     1      -0.850   4.253  -0.861  0.00  0.00    +0.398 C 
ATOM     41  N   UNL     1      -1.032   5.537  -1.243  0.00  0.00    -0.295 N 
ATOM     42  O   UNL     1      -0.337   3.411  -1.581  0.00  0.00    -0.227 OA
ATOM     43  H   UNL     1      -0.749   5.816  -2.169  0.00  0.00    +0.148 HD
ATOM     44  H   UNL     1      -1.457   6.194  -0.608  0.00  0.00    +0.148 HD
ENDBRANCH  39  40
ENDBRANCH  14  39
TORSDOF 7
