REMARK  Name = 
REMARK  13 active torsions:
REMARK  status: ('A' for Active; 'I' for Inactive)
REMARK    1  A    between atoms: C_1  and  O_2
REMARK    2  A    between atoms: O_2  and  C_3
REMARK    3  A    between atoms: C_6  and  C_7
REMARK    4  A    between atoms: C_9  and  O_10
REMARK    5  A    between atoms: O_10  and  C_11
REMARK    6  A    between atoms: C_12  and  O_13
REMARK    7  A    between atoms: C_14  and  C_15
REMARK    8  A    between atoms: C_17  and  C_18
REMARK    9  A    between atoms: C_19  and  O_20
REMARK   10  A    between atoms: O_20  and  C_21
REMARK   11  A    between atoms: C_24  and  O_25
REMARK   12  A    between atoms: O_25  and  C_26
REMARK   13  A    between atoms: C_30  and  C_31
REMARK                            x       y       z     vdW  Elec       q    Type
REMARK                         _______ _______ _______ _____ _____    ______ ____
ROOT
ATOM      1  C   UNL     1      -2.649  -0.518   1.046  0.00  0.00    +0.169 C 
ATOM      2  C   UNL     1      -1.787   0.296   1.685  0.00  0.00    +0.046 C 
ATOM      3  C   UNL     1      -1.027   1.423   1.034  0.00  0.00    +0.046 C 
ATOM      4  C   UNL     1      -1.841   2.698   0.722  0.00  0.00    -0.007 C 
ATOM      5  C   UNL     1      -2.628   3.207   1.938  0.00  0.00    +0.008 C 
ATOM      6  C   UNL     1      -0.942   3.849   0.202  0.00  0.00    +0.037 C 
ATOM      7  C   UNL     1       0.109   3.511  -0.879  0.00  0.00    +0.147 C 
ATOM      8  C   UNL     1      -0.479   3.270  -2.300  0.00  0.00    +0.150 C 
ATOM      9  C   UNL     1       0.464   2.443  -3.240  0.00  0.00    +0.040 C 
ATOM     10  C   UNL     1       1.679   3.280  -3.641  0.00  0.00    +0.014 C 
ATOM     11  C   UNL     1       0.711   1.042  -2.675  0.00  0.00    -0.019 C 
ATOM     12  C   UNL     1       1.810   0.276  -2.478  0.00  0.00    -0.033 C 
ATOM     13  C   UNL     1       3.200   0.652  -2.921  0.00  0.00    +0.042 C 
ATOM     14  C   UNL     1       1.731  -1.138  -1.840  0.00  0.00    +0.236 C 
ATOM     15  C   UNL     1       2.584  -1.364  -0.536  0.00  0.00    +0.186 C 
ATOM     16  C   UNL     1       2.212  -0.445   0.607  0.00  0.00    +0.008 C 
ATOM     17  C   UNL     1       1.891  -0.783   1.869  0.00  0.00    -0.001 C 
ATOM     18  C   UNL     1       1.936  -2.122   2.421  0.00  0.00    +0.008 C 
ATOM     19  C   UNL     1       1.310  -2.565   3.526  0.00  0.00    +0.013 C 
ATOM     20  C   UNL     1       1.449  -3.965   4.042  0.00  0.00    +0.049 C 
ATOM     21  C   UNL     1       0.379  -1.701   4.300  0.00  0.00    +0.263 C 
ATOM     22  O   UNL     1       0.765  -0.775   4.993  0.00  0.00    -0.268 OA
ATOM     23  N   UNL     1      -0.911  -2.130   4.144  0.00  0.00    -0.177 NA
ATOM     24  C   UNL     1      -1.769  -1.323   3.604  0.00  0.00    +0.089 C 
ATOM     25  C   UNL     1      -3.139  -1.799   3.252  0.00  0.00    +0.139 C 
ATOM     26  C   UNL     1      -3.387  -1.621   1.775  0.00  0.00    +0.203 C 
ATOM     27  O   UNL     1      -4.196  -2.333   1.182  0.00  0.00    -0.288 OA
ATOM     28  C   UNL     1      -1.510   0.080   3.125  0.00  0.00    +0.205 C 
ATOM     29  O   UNL     1      -1.153   0.961   3.883  0.00  0.00    -0.286 OA
ENDROOT
BRANCH   7  30
ATOM     30  O   UNL     1       1.008   4.636  -0.987  0.00  0.00    -0.377 OA
ATOM     31  C   UNL     1       2.113   4.557  -0.091  0.00  0.00    +0.194 C 
ENDBRANCH   7  30
BRANCH   8  32
ATOM     32  O   UNL     1      -1.756   2.619  -2.270  0.00  0.00    -0.389 OA
ATOM     33  H   UNL     1      -2.421   3.321  -2.156  0.00  0.00    +0.210 HD
ENDBRANCH   8  32
BRANCH   1  35
ATOM     34  C   UNL     1      -4.172  -0.088  -0.693  0.00  0.00    +0.277 C 
ATOM     35  O   UNL     1      -2.824  -0.380  -0.325  0.00  0.00    -0.491 OA
ENDBRANCH   1  35
BRANCH  15  36
ATOM     36  O   UNL     1       3.989  -1.179  -0.759  0.00  0.00    -0.372 OA
ATOM     37  C   UNL     1       4.634  -2.369  -1.196  0.00  0.00    +0.195 C 
ENDBRANCH  15  36
BRANCH  14  38
ATOM     38  O   UNL     1       0.346  -1.463  -1.563  0.00  0.00    -0.440 OA
BRANCH  38  39
ATOM     39  C   UNL     1       0.043  -2.774  -1.496  0.00  0.00    +0.398 C 
ATOM     40  N   UNL     1      -1.277  -2.925  -1.259  0.00  0.00    -0.295 N 
ATOM     41  O   UNL     1       0.823  -3.704  -1.616  0.00  0.00    -0.227 OA
ATOM     42  H   UNL     1      -1.675  -3.849  -1.189  0.00  0.00    +0.148 HD
ATOM     43  H   UNL     1      -1.872  -2.109  -1.188  0.00  0.00    +0.148 HD
ENDBRANCH  38  39
ENDBRANCH  14  38
TORSDOF 6
