REMARK  Name = 
REMARK  13 active torsions:
REMARK  status: ('A' for Active; 'I' for Inactive)
REMARK    1  A    between atoms: C_1  and  O_2
REMARK    2  A    between atoms: O_2  and  C_3
REMARK    3  A    between atoms: C_6  and  C_7
REMARK    4  A    between atoms: C_9  and  O_10
REMARK    5  A    between atoms: O_10  and  C_11
REMARK    6  A    between atoms: C_12  and  O_13
REMARK    7  A    between atoms: C_14  and  C_15
REMARK    8  A    between atoms: C_17  and  C_18
REMARK    9  A    between atoms: C_19  and  O_20
REMARK   10  A    between atoms: O_20  and  C_21
REMARK   11  A    between atoms: C_24  and  O_25
REMARK   12  A    between atoms: O_25  and  C_26
REMARK   13  A    between atoms: C_30  and  C_31
REMARK                            x       y       z     vdW  Elec       q    Type
REMARK                         _______ _______ _______ _____ _____    ______ ____
ROOT
ATOM      1  C   UNL     1       0.266  -4.178   2.674  0.00  0.00    +0.173 C 
ATOM      2  C   UNL     1      -0.691  -3.940   1.761  0.00  0.00    +0.047 C 
ATOM      3  C   UNL     1      -2.140  -3.625   2.050  0.00  0.00    +0.046 C 
ATOM      4  C   UNL     1      -2.631  -2.270   1.470  0.00  0.00    -0.007 C 
ATOM      5  C   UNL     1      -4.109  -2.404   1.072  0.00  0.00    +0.008 C 
ATOM      6  C   UNL     1      -2.502  -1.087   2.455  0.00  0.00    +0.037 C 
ATOM      7  C   UNL     1      -1.087  -0.702   2.915  0.00  0.00    +0.147 C 
ATOM      8  C   UNL     1      -0.163  -0.184   1.766  0.00  0.00    +0.150 C 
ATOM      9  C   UNL     1      -0.542   1.188   1.124  0.00  0.00    +0.040 C 
ATOM     10  C   UNL     1      -0.408   2.387   2.067  0.00  0.00    +0.014 C 
ATOM     11  C   UNL     1       0.338   1.472  -0.090  0.00  0.00    -0.019 C 
ATOM     12  C   UNL     1      -0.013   2.033  -1.270  0.00  0.00    -0.033 C 
ATOM     13  C   UNL     1      -1.403   2.508  -1.599  0.00  0.00    +0.042 C 
ATOM     14  C   UNL     1       1.045   2.251  -2.364  0.00  0.00    +0.236 C 
ATOM     15  C   UNL     1       0.692   1.491  -3.690  0.00  0.00    +0.186 C 
ATOM     16  C   UNL     1       1.932   0.985  -4.404  0.00  0.00    +0.008 C 
ATOM     17  C   UNL     1       2.550  -0.186  -4.166  0.00  0.00    -0.001 C 
ATOM     18  C   UNL     1       2.096  -1.113  -3.155  0.00  0.00    +0.008 C 
ATOM     19  C   UNL     1       1.033  -1.927  -3.285  0.00  0.00    +0.012 C 
ATOM     20  C   UNL     1       0.209  -2.150  -4.516  0.00  0.00    +0.049 C 
ATOM     21  C   UNL     1       0.466  -2.512  -2.038  0.00  0.00    +0.244 C 
ATOM     22  O   UNL     1      -0.686  -2.233  -1.726  0.00  0.00    -0.270 OA
ATOM     23  N   UNL     1       1.360  -3.244  -1.286  0.00  0.00    -0.279 N 
ATOM     24  C   UNL     1       1.061  -3.791  -0.055  0.00  0.00    +0.085 C 
ATOM     25  C   UNL     1       2.017  -4.061   0.837  0.00  0.00    +0.081 C 
ATOM     26  C   UNL     1       1.671  -4.459   2.217  0.00  0.00    +0.222 C 
ATOM     27  O   UNL     1       2.546  -4.903   2.950  0.00  0.00    -0.284 OA
ATOM     28  C   UNL     1      -0.343  -4.129   0.330  0.00  0.00    +0.207 C 
ATOM     29  O   UNL     1      -1.147  -4.612  -0.458  0.00  0.00    -0.286 OA
ATOM     30  H   UNL     1       2.323  -3.265  -1.599  0.00  0.00    +0.155 HD
ENDROOT
BRANCH   7  31
ATOM     31  O   UNL     1      -1.277   0.255   3.970  0.00  0.00    -0.377 OA
ATOM     32  C   UNL     1      -0.217   0.313   4.915  0.00  0.00    +0.194 C 
ENDBRANCH   7  31
BRANCH   8  33
ATOM     33  O   UNL     1       1.207  -0.141   2.220  0.00  0.00    -0.389 OA
ATOM     34  H   UNL     1       1.365  -0.920   2.779  0.00  0.00    +0.210 HD
ENDBRANCH   8  33
BRANCH   1  36
ATOM     35  C   UNL     1       0.441  -5.172   4.812  0.00  0.00    +0.277 C 
ATOM     36  O   UNL     1      -0.037  -4.083   4.024  0.00  0.00    -0.491 OA
ENDBRANCH   1  36
BRANCH  15  37
ATOM     37  O   UNL     1      -0.042   2.342  -4.589  0.00  0.00    -0.372 OA
ATOM     38  C   UNL     1      -0.880   1.614  -5.478  0.00  0.00    +0.195 C 
ENDBRANCH  15  37
BRANCH  14  39
ATOM     39  O   UNL     1       1.158   3.675  -2.565  0.00  0.00    -0.440 OA
BRANCH  39  40
ATOM     40  C   UNL     1       2.347   4.119  -3.011  0.00  0.00    +0.398 C 
ATOM     41  N   UNL     1       2.288   5.454  -3.207  0.00  0.00    -0.295 N 
ATOM     42  O   UNL     1       3.353   3.459  -3.214  0.00  0.00    -0.227 OA
ATOM     43  H   UNL     1       3.103   5.942  -3.544  0.00  0.00    +0.148 HD
ATOM     44  H   UNL     1       1.423   5.942  -3.032  0.00  0.00    +0.148 HD
ENDBRANCH  39  40
ENDBRANCH  14  39
TORSDOF 6
