REMARK  Name = 
REMARK  13 active torsions:
REMARK  status: ('A' for Active; 'I' for Inactive)
REMARK    1  A    between atoms: C_1  and  O_2
REMARK    2  A    between atoms: O_2  and  C_3
REMARK    3  A    between atoms: C_6  and  C_7
REMARK    4  A    between atoms: C_9  and  O_10
REMARK    5  A    between atoms: O_10  and  C_11
REMARK    6  A    between atoms: C_12  and  O_13
REMARK    7  A    between atoms: C_14  and  C_15
REMARK    8  A    between atoms: C_17  and  C_18
REMARK    9  A    between atoms: C_19  and  O_20
REMARK   10  A    between atoms: O_20  and  C_21
REMARK   11  A    between atoms: C_24  and  O_25
REMARK   12  A    between atoms: O_25  and  C_26
REMARK   13  A    between atoms: C_30  and  C_31
REMARK                            x       y       z     vdW  Elec       q    Type
REMARK                         _______ _______ _______ _____ _____    ______ ____
ROOT
ATOM      1  C   UNL     1      -2.549  -3.955  -1.536  0.00  0.00    +0.169 C 
ATOM      2  C   UNL     1      -1.577  -3.434  -0.761  0.00  0.00    +0.046 C 
ATOM      3  C   UNL     1      -0.279  -4.159  -0.460  0.00  0.00    +0.046 C 
ATOM      4  C   UNL     1       1.061  -3.386  -0.595  0.00  0.00    -0.007 C 
ATOM      5  C   UNL     1       2.213  -4.372  -0.363  0.00  0.00    +0.008 C 
ATOM      6  C   UNL     1       1.165  -2.634  -1.948  0.00  0.00    +0.037 C 
ATOM      7  C   UNL     1       2.387  -1.726  -2.231  0.00  0.00    +0.147 C 
ATOM      8  C   UNL     1       2.569  -0.456  -1.332  0.00  0.00    +0.150 C 
ATOM      9  C   UNL     1       2.071   0.897  -1.927  0.00  0.00    +0.040 C 
ATOM     10  C   UNL     1       2.779   1.261  -3.235  0.00  0.00    +0.014 C 
ATOM     11  C   UNL     1       0.569   0.959  -2.123  0.00  0.00    -0.019 C 
ATOM     12  C   UNL     1      -0.289   1.858  -1.590  0.00  0.00    -0.033 C 
ATOM     13  C   UNL     1      -1.766   1.737  -1.873  0.00  0.00    +0.042 C 
ATOM     14  C   UNL     1       0.078   3.064  -0.711  0.00  0.00    +0.236 C 
ATOM     15  C   UNL     1       0.571   2.660   0.726  0.00  0.00    +0.186 C 
ATOM     16  C   UNL     1      -0.391   3.165   1.783  0.00  0.00    +0.008 C 
ATOM     17  C   UNL     1      -1.344   2.478   2.437  0.00  0.00    -0.001 C 
ATOM     18  C   UNL     1      -1.635   1.076   2.245  0.00  0.00    +0.008 C 
ATOM     19  C   UNL     1      -2.741   0.421   2.640  0.00  0.00    +0.013 C 
ATOM     20  C   UNL     1      -3.930   0.934   3.381  0.00  0.00    +0.049 C 
ATOM     21  C   UNL     1      -2.815  -0.996   2.194  0.00  0.00    +0.263 C 
ATOM     22  O   UNL     1      -2.176  -1.900   2.712  0.00  0.00    -0.268 OA
ATOM     23  N   UNL     1      -3.684  -1.144   1.146  0.00  0.00    -0.177 NA
ATOM     24  C   UNL     1      -3.219  -1.689   0.063  0.00  0.00    +0.089 C 
ATOM     25  C   UNL     1      -4.114  -1.923  -1.103  0.00  0.00    +0.139 C 
ATOM     26  C   UNL     1      -3.798  -3.173  -1.870  0.00  0.00    +0.203 C 
ATOM     27  O   UNL     1      -4.543  -3.537  -2.780  0.00  0.00    -0.288 OA
ATOM     28  C   UNL     1      -1.785  -2.090  -0.173  0.00  0.00    +0.205 C 
ATOM     29  O   UNL     1      -0.895  -1.283   0.043  0.00  0.00    -0.286 OA
ENDROOT
BRANCH   7  30
ATOM     30  O   UNL     1       3.556  -2.565  -2.178  0.00  0.00    -0.377 OA
ATOM     31  C   UNL     1       4.612  -2.136  -3.027  0.00  0.00    +0.194 C 
ENDBRANCH   7  30
BRANCH   8  32
ATOM     32  O   UNL     1       2.019  -0.601  -0.019  0.00  0.00    -0.389 OA
ATOM     33  H   UNL     1       1.043  -0.637  -0.098  0.00  0.00    +0.210 HD
ENDBRANCH   8  32
BRANCH   1  35
ATOM     34  C   UNL     1      -3.465  -6.085  -2.017  0.00  0.00    +0.277 C 
ATOM     35  O   UNL     1      -2.350  -5.202  -2.118  0.00  0.00    -0.491 OA
ENDBRANCH   1  35
BRANCH  15  36
ATOM     36  O   UNL     1       1.866   3.221   1.009  0.00  0.00    -0.372 OA
ATOM     37  C   UNL     1       2.594   2.467   1.971  0.00  0.00    +0.195 C 
ENDBRANCH  15  36
BRANCH  14  38
ATOM     38  O   UNL     1       1.049   3.846  -1.435  0.00  0.00    -0.440 OA
BRANCH  38  39
ATOM     39  C   UNL     1       1.080   5.155  -1.112  0.00  0.00    +0.398 C 
ATOM     40  N   UNL     1       2.079   5.768  -1.786  0.00  0.00    -0.295 N 
ATOM     41  O   UNL     1       0.328   5.742  -0.350  0.00  0.00    -0.227 OA
ATOM     42  H   UNL     1       2.680   5.226  -2.384  0.00  0.00    +0.148 HD
ATOM     43  H   UNL     1       2.238   6.752  -1.637  0.00  0.00    +0.148 HD
ENDBRANCH  38  39
ENDBRANCH  14  38
TORSDOF 6
