REMARK  Name = 
REMARK  14 active torsions:
REMARK  status: ('A' for Active; 'I' for Inactive)
REMARK    1  A    between atoms: C_1  and  O_2
REMARK    2  A    between atoms: O_2  and  C_3
REMARK    3  A    between atoms: C_6  and  C_7
REMARK    4  A    between atoms: C_9  and  O_10
REMARK    5  A    between atoms: O_10  and  C_11
REMARK    6  A    between atoms: C_12  and  O_13
REMARK    7  A    between atoms: C_14  and  C_15
REMARK    8  A    between atoms: C_17  and  C_18
REMARK    9  A    between atoms: C_19  and  O_20
REMARK   10  A    between atoms: O_20  and  C_21
REMARK   11  A    between atoms: C_24  and  O_25
REMARK   12  A    between atoms: O_25  and  C_26
REMARK   13  A    between atoms: C_30  and  C_31
REMARK   14  A    between atoms: C_37  and  O_38
REMARK                            x       y       z     vdW  Elec       q    Type
REMARK                         _______ _______ _______ _____ _____    ______ ____
ROOT
ATOM      1  C   UNL     1      -2.166  -0.562   5.478  0.00  0.00    +0.172 C 
ATOM      2  C   UNL     1      -1.371   0.056   4.417  0.00  0.00    +0.065 C 
ATOM      3  C   UNL     1      -0.039   0.277   4.463  0.00  0.00    -0.008 C 
ATOM      4  C   UNL     1       0.832   0.862   3.355  0.00  0.00    +0.012 C 
ATOM      5  C   UNL     1       1.160   2.312   3.724  0.00  0.00    +0.012 C 
ATOM      6  C   UNL     1       2.102  -0.003   3.156  0.00  0.00    +0.041 C 
ATOM      7  C   UNL     1       2.749   0.054   1.744  0.00  0.00    +0.147 C 
ATOM      8  C   UNL     1       1.925  -0.742   0.686  0.00  0.00    +0.150 C 
ATOM      9  C   UNL     1       2.393  -0.532  -0.794  0.00  0.00    +0.040 C 
ATOM     10  C   UNL     1       3.867  -0.901  -1.007  0.00  0.00    +0.014 C 
ATOM     11  C   UNL     1       1.555  -1.356  -1.764  0.00  0.00    -0.019 C 
ATOM     12  C   UNL     1       1.030  -1.011  -2.963  0.00  0.00    -0.033 C 
ATOM     13  C   UNL     1       0.264  -2.056  -3.745  0.00  0.00    +0.042 C 
ATOM     14  C   UNL     1       1.164   0.330  -3.697  0.00  0.00    +0.236 C 
ATOM     15  C   UNL     1       0.101   1.390  -3.262  0.00  0.00    +0.186 C 
ATOM     16  C   UNL     1      -1.301   1.065  -3.742  0.00  0.00    +0.008 C 
ATOM     17  C   UNL     1      -2.350   0.618  -3.029  0.00  0.00    -0.001 C 
ATOM     18  C   UNL     1      -2.295   0.269  -1.630  0.00  0.00    +0.008 C 
ATOM     19  C   UNL     1      -3.300  -0.112  -0.815  0.00  0.00    +0.012 C 
ATOM     20  C   UNL     1      -4.747  -0.235  -1.159  0.00  0.00    +0.049 C 
ATOM     21  C   UNL     1      -2.832  -0.416   0.576  0.00  0.00    +0.244 C 
ATOM     22  O   UNL     1      -1.656  -0.709   0.793  0.00  0.00    -0.270 OA
ATOM     23  N   UNL     1      -3.779  -0.417   1.580  0.00  0.00    -0.279 N 
ATOM     24  C   UNL     1      -3.377  -0.323   2.898  0.00  0.00    +0.085 C 
ATOM     25  C   UNL     1      -4.022  -0.901   3.922  0.00  0.00    +0.076 C 
ATOM     26  C   UNL     1      -3.449  -0.912   5.251  0.00  0.00    +0.161 C 
ATOM     27  C   UNL     1      -2.162   0.511   3.223  0.00  0.00    +0.211 C 
ATOM     28  O   UNL     1      -1.932   1.554   2.614  0.00  0.00    -0.285 OA
ATOM     29  H   UNL     1      -4.747  -0.604   1.371  0.00  0.00    +0.155 HD
ENDROOT
BRANCH   7  30
ATOM     30  O   UNL     1       2.960   1.396   1.301  0.00  0.00    -0.377 OA
ATOM     31  C   UNL     1       4.138   1.986   1.835  0.00  0.00    +0.194 C 
ENDBRANCH   7  30
BRANCH   8  32
ATOM     32  O   UNL     1       1.958  -2.137   1.046  0.00  0.00    -0.389 OA
ATOM     33  H   UNL     1       2.858  -2.466   0.892  0.00  0.00    +0.210 HD
ENDBRANCH   8  32
BRANCH  26  34
ATOM     34  O   UNL     1      -4.282  -1.397   6.230  0.00  0.00    -0.503 OA
ATOM     35  H   UNL     1      -3.816  -1.258   7.077  0.00  0.00    +0.292 HD
ENDBRANCH  26  34
BRANCH   1  37
ATOM     36  C   UNL     1      -1.050  -1.966   6.941  0.00  0.00    +0.277 C 
ATOM     37  O   UNL     1      -1.597  -0.659   6.736  0.00  0.00    -0.491 OA
ENDBRANCH   1  37
BRANCH  15  38
ATOM     38  O   UNL     1       0.435   2.661  -3.862  0.00  0.00    -0.372 OA
ATOM     39  C   UNL     1       0.061   3.764  -3.045  0.00  0.00    +0.195 C 
ENDBRANCH  15  38
BRANCH  14  40
ATOM     40  O   UNL     1       2.483   0.861  -3.433  0.00  0.00    -0.440 OA
BRANCH  40  41
ATOM     41  C   UNL     1       3.162   1.342  -4.492  0.00  0.00    +0.398 C 
ATOM     42  N   UNL     1       4.327   1.885  -4.071  0.00  0.00    -0.295 N 
ATOM     43  O   UNL     1       2.834   1.305  -5.667  0.00  0.00    -0.227 OA
ATOM     44  H   UNL     1       4.947   2.298  -4.750  0.00  0.00    +0.148 HD
ATOM     45  H   UNL     1       4.541   1.899  -3.087  0.00  0.00    +0.148 HD
ENDBRANCH  40  41
ENDBRANCH  14  40
TORSDOF 7
