REMARK  Name = 
REMARK  14 active torsions:
REMARK  status: ('A' for Active; 'I' for Inactive)
REMARK    1  A    between atoms: C_1  and  O_2
REMARK    2  A    between atoms: O_2  and  C_3
REMARK    3  A    between atoms: C_6  and  C_7
REMARK    4  A    between atoms: C_9  and  O_10
REMARK    5  A    between atoms: O_10  and  C_11
REMARK    6  A    between atoms: C_12  and  O_13
REMARK    7  A    between atoms: C_14  and  C_15
REMARK    8  A    between atoms: C_17  and  C_18
REMARK    9  A    between atoms: C_19  and  O_20
REMARK   10  A    between atoms: O_20  and  C_21
REMARK   11  A    between atoms: C_24  and  O_25
REMARK   12  A    between atoms: O_25  and  C_26
REMARK   13  A    between atoms: C_30  and  C_31
REMARK   14  A    between atoms: C_37  and  O_38
REMARK                            x       y       z     vdW  Elec       q    Type
REMARK                         _______ _______ _______ _____ _____    ______ ____
ROOT
ATOM      1  C   UNL     1       2.151   1.306   4.085  0.00  0.00    +0.172 C 
ATOM      2  C   UNL     1       2.256   0.987   2.645  0.00  0.00    +0.065 C 
ATOM      3  C   UNL     1       3.403   1.181   1.954  0.00  0.00    -0.008 C 
ATOM      4  C   UNL     1       3.838   1.011   0.501  0.00  0.00    +0.012 C 
ATOM      5  C   UNL     1       5.038   0.054   0.466  0.00  0.00    +0.012 C 
ATOM      6  C   UNL     1       2.765   0.576  -0.513  0.00  0.00    +0.041 C 
ATOM      7  C   UNL     1       3.138   0.698  -2.000  0.00  0.00    +0.147 C 
ATOM      8  C   UNL     1       1.986   0.270  -2.975  0.00  0.00    +0.150 C 
ATOM      9  C   UNL     1       1.555  -1.234  -3.019  0.00  0.00    +0.040 C 
ATOM     10  C   UNL     1       2.757  -2.179  -3.049  0.00  0.00    +0.014 C 
ATOM     11  C   UNL     1       0.586  -1.669  -1.939  0.00  0.00    -0.019 C 
ATOM     12  C   UNL     1      -0.550  -2.389  -2.058  0.00  0.00    -0.033 C 
ATOM     13  C   UNL     1      -1.038  -2.985  -3.351  0.00  0.00    +0.042 C 
ATOM     14  C   UNL     1      -1.426  -2.631  -0.816  0.00  0.00    +0.236 C 
ATOM     15  C   UNL     1      -2.848  -1.991  -0.981  0.00  0.00    +0.186 C 
ATOM     16  C   UNL     1      -3.528  -1.704   0.342  0.00  0.00    +0.008 C 
ATOM     17  C   UNL     1      -3.982  -0.525   0.799  0.00  0.00    -0.001 C 
ATOM     18  C   UNL     1      -3.917   0.730   0.090  0.00  0.00    +0.008 C 
ATOM     19  C   UNL     1      -2.819   1.462  -0.169  0.00  0.00    +0.012 C 
ATOM     20  C   UNL     1      -2.841   2.691  -1.028  0.00  0.00    +0.049 C 
ATOM     21  C   UNL     1      -1.464   1.116   0.357  0.00  0.00    +0.244 C 
ATOM     22  O   UNL     1      -0.540   0.942  -0.425  0.00  0.00    -0.270 OA
ATOM     23  N   UNL     1      -1.398   1.207   1.732  0.00  0.00    -0.279 N 
ATOM     24  C   UNL     1      -0.270   1.082   2.517  0.00  0.00    +0.085 C 
ATOM     25  C   UNL     1      -0.263   1.542   3.780  0.00  0.00    +0.076 C 
ATOM     26  C   UNL     1       0.922   1.511   4.619  0.00  0.00    +0.161 C 
ATOM     27  C   UNL     1       0.995   0.416   2.050  0.00  0.00    +0.211 C 
ATOM     28  O   UNL     1       0.975  -0.610   1.382  0.00  0.00    -0.285 OA
ATOM     29  H   UNL     1      -2.250   1.495   2.194  0.00  0.00    +0.155 HD
ENDROOT
BRANCH   7  30
ATOM     30  O   UNL     1       3.526   2.075  -2.198  0.00  0.00    -0.377 OA
ATOM     31  C   UNL     1       4.150   2.338  -3.444  0.00  0.00    +0.194 C 
ENDBRANCH   7  30
BRANCH   8  32
ATOM     32  O   UNL     1       0.831   1.113  -2.851  0.00  0.00    -0.389 OA
ATOM     33  H   UNL     1       0.443   0.963  -1.960  0.00  0.00    +0.210 HD
ENDBRANCH   8  32
BRANCH  26  34
ATOM     34  O   UNL     1       0.699   1.774   5.951  0.00  0.00    -0.503 OA
ATOM     35  H   UNL     1      -0.237   1.618   6.158  0.00  0.00    +0.292 HD
ENDBRANCH  26  34
BRANCH   1  37
ATOM     36  C   UNL     1       3.416   1.569   6.129  0.00  0.00    +0.277 C 
ATOM     37  O   UNL     1       3.367   1.304   4.735  0.00  0.00    -0.491 OA
ENDBRANCH   1  37
BRANCH  15  38
ATOM     38  O   UNL     1      -3.705  -2.886  -1.720  0.00  0.00    -0.372 OA
ATOM     39  C   UNL     1      -4.721  -2.206  -2.445  0.00  0.00    +0.195 C 
ENDBRANCH  15  38
BRANCH  14  40
ATOM     40  O   UNL     1      -1.486  -4.063  -0.633  0.00  0.00    -0.440 OA
BRANCH  40  41
ATOM     41  C   UNL     1      -1.590  -4.517   0.628  0.00  0.00    +0.398 C 
ATOM     42  N   UNL     1      -1.624  -5.869   0.618  0.00  0.00    -0.295 N 
ATOM     43  O   UNL     1      -1.653  -3.860   1.654  0.00  0.00    -0.227 OA
ATOM     44  H   UNL     1      -1.693  -6.367   1.491  0.00  0.00    +0.148 HD
ATOM     45  H   UNL     1      -1.571  -6.356  -0.263  0.00  0.00    +0.148 HD
ENDBRANCH  40  41
ENDBRANCH  14  40
TORSDOF 7
