REMARK  Name = 
REMARK  15 active torsions:
REMARK  status: ('A' for Active; 'I' for Inactive)
REMARK    1  A    between atoms: C_1  and  O_2
REMARK    2  A    between atoms: O_2  and  C_3
REMARK    3  A    between atoms: C_6  and  C_7
REMARK    4  A    between atoms: C_9  and  O_10
REMARK    5  A    between atoms: O_10  and  C_11
REMARK    6  A    between atoms: C_12  and  O_13
REMARK    7  A    between atoms: C_14  and  C_15
REMARK    8  A    between atoms: C_17  and  C_18
REMARK    9  A    between atoms: C_19  and  O_20
REMARK   10  A    between atoms: O_20  and  C_21
REMARK   11  A    between atoms: C_21  and  O_23
REMARK   12  A    between atoms: C_24  and  O_25
REMARK   13  A    between atoms: O_25  and  C_26
REMARK   14  A    between atoms: C_30  and  C_31
REMARK   15  A    between atoms: C_32  and  O_33
REMARK                            x       y       z     vdW  Elec       q    Type
REMARK                         _______ _______ _______ _____ _____    ______ ____
ROOT
ATOM      1  C   UNL     1      -0.610   4.838  -0.045  0.00  0.00    +0.173 C 
ATOM      2  C   UNL     1      -0.493   4.027   1.021  0.00  0.00    +0.047 C 
ATOM      3  C   UNL     1      -1.672   3.548   1.847  0.00  0.00    +0.046 C 
ATOM      4  C   UNL     1      -1.752   2.011   2.064  0.00  0.00    -0.007 C 
ATOM      5  C   UNL     1      -2.128   1.742   3.532  0.00  0.00    +0.008 C 
ATOM      6  C   UNL     1      -2.768   1.261   1.162  0.00  0.00    +0.037 C 
ATOM      7  C   UNL     1      -2.339   1.093  -0.309  0.00  0.00    +0.147 C 
ATOM      8  C   UNL     1      -3.163  -0.009  -1.046  0.00  0.00    +0.150 C 
ATOM      9  C   UNL     1      -2.957  -1.473  -0.562  0.00  0.00    +0.040 C 
ATOM     10  C   UNL     1      -3.745  -2.433  -1.467  0.00  0.00    +0.014 C 
ATOM     11  C   UNL     1      -1.495  -1.880  -0.545  0.00  0.00    -0.019 C 
ATOM     12  C   UNL     1      -0.920  -2.875   0.168  0.00  0.00    -0.033 C 
ATOM     13  C   UNL     1      -1.688  -3.832   1.046  0.00  0.00    +0.042 C 
ATOM     14  C   UNL     1       0.592  -3.111   0.077  0.00  0.00    +0.236 C 
ATOM     15  C   UNL     1       1.439  -2.760   1.356  0.00  0.00    +0.186 C 
ATOM     16  C   UNL     1       0.791  -1.783   2.314  0.00  0.00    +0.008 C 
ATOM     17  C   UNL     1       1.072  -0.530   2.701  0.00  0.00    -0.001 C 
ATOM     18  C   UNL     1       2.110   0.395   2.319  0.00  0.00    +0.008 C 
ATOM     19  C   UNL     1       2.394   0.886   1.099  0.00  0.00    +0.011 C 
ATOM     20  C   UNL     1       1.787   0.523  -0.211  0.00  0.00    +0.049 C 
ATOM     21  C   UNL     1       3.364   2.004   1.097  0.00  0.00    +0.216 C 
ATOM     22  N   UNL     1       3.264   3.264   0.867  0.00  0.00    -0.209 NA
ATOM     23  C   UNL     1       2.025   3.795   0.581  0.00  0.00    +0.118 C 
ATOM     24  C   UNL     1       1.869   4.551  -0.508  0.00  0.00    +0.086 C 
ATOM     25  C   UNL     1       0.595   5.190  -0.861  0.00  0.00    +0.223 C 
ATOM     26  O   UNL     1       0.553   5.938  -1.831  0.00  0.00    -0.284 OA
ATOM     27  C   UNL     1       0.864   3.666   1.528  0.00  0.00    +0.211 C 
ATOM     28  O   UNL     1       1.018   3.285   2.685  0.00  0.00    -0.285 OA
ENDROOT
BRANCH   7  29
ATOM     29  O   UNL     1      -2.583   2.356  -0.957  0.00  0.00    -0.377 OA
ATOM     30  C   UNL     1      -1.914   2.513  -2.204  0.00  0.00    +0.194 C 
ENDBRANCH   7  29
BRANCH   8  31
ATOM     31  O   UNL     1      -4.556   0.331  -0.965  0.00  0.00    -0.389 OA
ATOM     32  H   UNL     1      -4.603   1.296  -1.114  0.00  0.00    +0.210 HD
ENDBRANCH   8  31
BRANCH  21  33
ATOM     33  O   UNL     1       4.594   1.543   1.381  0.00  0.00    -0.492 OA
ATOM     34  H   UNL     1       5.193   2.307   1.393  0.00  0.00    +0.294 HD
ENDBRANCH  21  33
BRANCH   1  36
ATOM     35  C   UNL     1      -1.935   6.684  -0.713  0.00  0.00    +0.277 C 
ATOM     36  O   UNL     1      -1.866   5.290  -0.427  0.00  0.00    -0.491 OA
ENDBRANCH   1  36
BRANCH  15  37
ATOM     37  O   UNL     1       2.723  -2.257   0.960  0.00  0.00    -0.372 OA
ATOM     38  C   UNL     1       3.690  -3.277   0.750  0.00  0.00    +0.195 C 
ENDBRANCH  15  37
BRANCH  14  39
ATOM     39  O   UNL     1       0.822  -4.515  -0.215  0.00  0.00    -0.439 OA
BRANCH  39  40
ATOM     40  C   UNL     1       0.789  -4.966  -1.476  0.00  0.00    +0.381 C 
ATOM     41  N   UNL     1       0.322  -4.409  -2.525  0.00  0.00    -0.233 NA
ATOM     42  H   UNL     1      -0.109  -3.516  -2.286  0.00  0.00    +0.193 HD
BRANCH  40  43
ATOM     43  O   UNL     1       1.331  -6.179  -1.575  0.00  0.00    -0.466 OA
ATOM     44  H   UNL     1       1.253  -6.436  -2.507  0.00  0.00    +0.297 HD
ENDBRANCH  40  43
ENDBRANCH  39  40
ENDBRANCH  14  39
TORSDOF 8
