REMARK  Name = 
REMARK  14 active torsions:
REMARK  status: ('A' for Active; 'I' for Inactive)
REMARK    1  A    between atoms: C_1  and  O_2
REMARK    2  A    between atoms: O_2  and  C_3
REMARK    3  A    between atoms: C_6  and  C_7
REMARK    4  A    between atoms: C_9  and  O_10
REMARK    5  A    between atoms: O_10  and  C_11
REMARK    6  A    between atoms: C_12  and  O_13
REMARK    7  A    between atoms: C_14  and  C_15
REMARK    8  A    between atoms: C_17  and  C_18
REMARK    9  A    between atoms: C_19  and  O_20
REMARK   10  A    between atoms: O_20  and  C_21
REMARK   11  A    between atoms: C_21  and  O_23
REMARK   12  A    between atoms: C_24  and  O_25
REMARK   13  A    between atoms: O_25  and  C_26
REMARK   14  A    between atoms: C_30  and  C_31
REMARK                            x       y       z     vdW  Elec       q    Type
REMARK                         _______ _______ _______ _____ _____    ______ ____
ROOT
ATOM      1  C   UNL     1      -0.380   3.348   1.437  0.00  0.00    +0.173 C 
ATOM      2  C   UNL     1      -1.545   2.747   1.133  0.00  0.00    +0.047 C 
ATOM      3  C   UNL     1      -2.639   2.486   2.147  0.00  0.00    +0.046 C 
ATOM      4  C   UNL     1      -2.770   1.029   2.676  0.00  0.00    -0.007 C 
ATOM      5  C   UNL     1      -3.398   0.090   1.644  0.00  0.00    +0.008 C 
ATOM      6  C   UNL     1      -1.436   0.478   3.238  0.00  0.00    +0.037 C 
ATOM      7  C   UNL     1      -1.582  -0.868   3.992  0.00  0.00    +0.147 C 
ATOM      8  C   UNL     1      -1.181  -2.099   3.118  0.00  0.00    +0.150 C 
ATOM      9  C   UNL     1       0.339  -2.291   2.844  0.00  0.00    +0.040 C 
ATOM     10  C   UNL     1       1.138  -2.856   4.026  0.00  0.00    +0.014 C 
ATOM     11  C   UNL     1       0.521  -3.257   1.676  0.00  0.00    -0.019 C 
ATOM     12  C   UNL     1       1.007  -3.089   0.423  0.00  0.00    -0.033 C 
ATOM     13  C   UNL     1       1.121  -4.323  -0.453  0.00  0.00    +0.042 C 
ATOM     14  C   UNL     1       1.528  -1.808  -0.262  0.00  0.00    +0.236 C 
ATOM     15  C   UNL     1       0.850  -1.439  -1.637  0.00  0.00    +0.186 C 
ATOM     16  C   UNL     1      -0.668  -1.496  -1.616  0.00  0.00    +0.008 C 
ATOM     17  C   UNL     1      -1.533  -1.241  -2.614  0.00  0.00    -0.001 C 
ATOM     18  C   UNL     1      -1.236  -0.809  -3.963  0.00  0.00    +0.008 C 
ATOM     19  C   UNL     1      -0.638   0.326  -4.378  0.00  0.00    +0.012 C 
ATOM     20  C   UNL     1      -0.365   0.596  -5.829  0.00  0.00    +0.049 C 
ATOM     21  C   UNL     1      -0.128   1.389  -3.456  0.00  0.00    +0.244 C 
ATOM     22  O   UNL     1       0.965   1.908  -3.656  0.00  0.00    -0.270 OA
ATOM     23  N   UNL     1      -0.990   1.702  -2.434  0.00  0.00    -0.279 N 
ATOM     24  C   UNL     1      -0.715   2.370  -1.259  0.00  0.00    +0.085 C 
ATOM     25  C   UNL     1       0.449   2.934  -0.936  0.00  0.00    +0.081 C 
ATOM     26  C   UNL     1       0.703   3.476   0.407  0.00  0.00    +0.222 C 
ATOM     27  O   UNL     1       1.819   3.922   0.664  0.00  0.00    -0.284 OA
ATOM     28  C   UNL     1      -1.831   2.355  -0.270  0.00  0.00    +0.207 C 
ATOM     29  O   UNL     1      -2.951   2.000  -0.632  0.00  0.00    -0.286 OA
ATOM     30  H   UNL     1      -1.925   1.301  -2.474  0.00  0.00    +0.155 HD
ENDROOT
BRANCH   7  31
ATOM     31  O   UNL     1      -0.793  -0.750   5.186  0.00  0.00    -0.377 OA
ATOM     32  C   UNL     1      -1.240  -1.575   6.255  0.00  0.00    +0.194 C 
ENDBRANCH   7  31
BRANCH   8  33
ATOM     33  O   UNL     1      -1.724  -3.301   3.696  0.00  0.00    -0.389 OA
ATOM     34  H   UNL     1      -2.693  -3.220   3.676  0.00  0.00    +0.210 HD
ENDBRANCH   8  33
BRANCH  15  35
ATOM     35  O   UNL     1       1.300  -2.305  -2.692  0.00  0.00    -0.372 OA
ATOM     36  C   UNL     1       2.498  -1.836  -3.301  0.00  0.00    +0.195 C 
ENDBRANCH  15  35
BRANCH   1  38
ATOM     37  C   UNL     1       0.438   5.037   2.882  0.00  0.00    +0.277 C 
ATOM     38  O   UNL     1      -0.145   3.744   2.748  0.00  0.00    -0.491 OA
ENDBRANCH   1  38
BRANCH  14  39
ATOM     39  O   UNL     1       1.394  -0.683   0.627  0.00  0.00    -0.439 OA
BRANCH  39  40
ATOM     40  C   UNL     1       2.309   0.293   0.536  0.00  0.00    +0.381 C 
ATOM     41  N   UNL     1       3.192   0.414  -0.379  0.00  0.00    -0.233 NA
ATOM     42  H   UNL     1       3.756   1.251  -0.225  0.00  0.00    +0.193 HD
BRANCH  40  43
ATOM     43  O   UNL     1       2.159   1.175   1.525  0.00  0.00    -0.466 OA
ATOM     44  H   UNL     1       2.742   1.944   1.425  0.00  0.00    +0.297 HD
ENDBRANCH  40  43
ENDBRANCH  39  40
ENDBRANCH  14  39
TORSDOF 7
