REMARK  Name = 
REMARK  15 active torsions:
REMARK  status: ('A' for Active; 'I' for Inactive)
REMARK    1  A    between atoms: C_1  and  O_2
REMARK    2  A    between atoms: O_2  and  C_3
REMARK    3  A    between atoms: C_6  and  C_7
REMARK    4  A    between atoms: C_9  and  O_10
REMARK    5  A    between atoms: O_10  and  C_11
REMARK    6  A    between atoms: C_12  and  O_13
REMARK    7  A    between atoms: C_14  and  C_15
REMARK    8  A    between atoms: C_17  and  C_18
REMARK    9  A    between atoms: C_19  and  O_20
REMARK   10  A    between atoms: O_20  and  C_21
REMARK   11  A    between atoms: C_24  and  O_25
REMARK   12  A    between atoms: O_25  and  C_26
REMARK   13  A    between atoms: C_30  and  C_31
REMARK   14  A    between atoms: C_32  and  O_33
REMARK   15  A    between atoms: C_37  and  O_38
REMARK                            x       y       z     vdW  Elec       q    Type
REMARK                         _______ _______ _______ _____ _____    ______ ____
ROOT
ATOM      1  C   UNL     1      -2.396   2.744   0.614  0.00  0.00    +0.172 C 
ATOM      2  C   UNL     1      -2.374   1.527  -0.204  0.00  0.00    +0.065 C 
ATOM      3  C   UNL     1      -2.056   1.566  -1.521  0.00  0.00    -0.008 C 
ATOM      4  C   UNL     1      -1.896   0.427  -2.510  0.00  0.00    +0.012 C 
ATOM      5  C   UNL     1      -3.233   0.162  -3.211  0.00  0.00    +0.012 C 
ATOM      6  C   UNL     1      -0.815   0.725  -3.585  0.00  0.00    +0.041 C 
ATOM      7  C   UNL     1       0.587   1.105  -3.053  0.00  0.00    +0.147 C 
ATOM      8  C   UNL     1       1.465  -0.095  -2.580  0.00  0.00    +0.150 C 
ATOM      9  C   UNL     1       2.548   0.263  -1.510  0.00  0.00    +0.040 C 
ATOM     10  C   UNL     1       3.653   1.151  -2.090  0.00  0.00    +0.014 C 
ATOM     11  C   UNL     1       1.979   0.935  -0.273  0.00  0.00    -0.019 C 
ATOM     12  C   UNL     1       1.985   0.527   1.014  0.00  0.00    -0.033 C 
ATOM     13  C   UNL     1       1.396   1.435   2.070  0.00  0.00    +0.042 C 
ATOM     14  C   UNL     1       2.618  -0.738   1.583  0.00  0.00    +0.236 C 
ATOM     15  C   UNL     1       2.083  -2.126   1.111  0.00  0.00    +0.186 C 
ATOM     16  C   UNL     1       0.597  -2.295   0.921  0.00  0.00    +0.008 C 
ATOM     17  C   UNL     1      -0.442  -2.097   1.746  0.00  0.00    -0.001 C 
ATOM     18  C   UNL     1      -0.395  -1.625   3.107  0.00  0.00    +0.008 C 
ATOM     19  C   UNL     1      -1.457  -1.315   3.873  0.00  0.00    +0.011 C 
ATOM     20  C   UNL     1      -1.330  -0.845   5.290  0.00  0.00    +0.049 C 
ATOM     21  C   UNL     1      -2.845  -1.474   3.389  0.00  0.00    +0.216 C 
ATOM     22  N   UNL     1      -3.606  -0.830   2.585  0.00  0.00    -0.209 NA
ATOM     23  C   UNL     1      -3.116   0.297   1.963  0.00  0.00    +0.118 C 
ATOM     24  C   UNL     1      -3.099   1.490   2.577  0.00  0.00    +0.081 C 
ATOM     25  C   UNL     1      -2.757   2.710   1.906  0.00  0.00    +0.161 C 
ATOM     26  C   UNL     1      -2.784   0.228   0.480  0.00  0.00    +0.215 C 
ATOM     27  O   UNL     1      -2.899  -0.835  -0.127  0.00  0.00    -0.285 OA
ENDROOT
BRANCH   7  28
ATOM     28  O   UNL     1       1.319   1.750  -4.118  0.00  0.00    -0.377 OA
ATOM     29  C   UNL     1       1.078   3.150  -4.206  0.00  0.00    +0.194 C 
ENDBRANCH   7  28
BRANCH   8  30
ATOM     30  O   UNL     1       0.702  -1.187  -2.069  0.00  0.00    -0.389 OA
ATOM     31  H   UNL     1       0.244  -1.605  -2.819  0.00  0.00    +0.210 HD
ENDBRANCH   8  30
BRANCH  25  32
ATOM     32  O   UNL     1      -2.876   3.840   2.680  0.00  0.00    -0.503 OA
ATOM     33  H   UNL     1      -2.788   4.600   2.075  0.00  0.00    +0.292 HD
ENDBRANCH  25  32
BRANCH   1  35
ATOM     34  C   UNL     1      -0.759   4.323   0.131  0.00  0.00    +0.277 C 
ATOM     35  O   UNL     1      -2.133   3.957  -0.009  0.00  0.00    -0.491 OA
ENDBRANCH   1  35
BRANCH  15  36
ATOM     36  O   UNL     1       2.528  -3.109   2.076  0.00  0.00    -0.372 OA
ATOM     37  C   UNL     1       2.674  -4.411   1.524  0.00  0.00    +0.195 C 
ENDBRANCH  15  36
BRANCH  21  38
ATOM     38  O   UNL     1      -3.385  -2.558   3.974  0.00  0.00    -0.492 OA
ATOM     39  H   UNL     1      -4.278  -2.659   3.604  0.00  0.00    +0.294 HD
ENDBRANCH  21  38
BRANCH  14  40
ATOM     40  O   UNL     1       4.035  -0.697   1.250  0.00  0.00    -0.440 OA
BRANCH  40  41
ATOM     41  C   UNL     1       4.856  -0.157   2.171  0.00  0.00    +0.398 C 
ATOM     42  N   UNL     1       6.133  -0.220   1.733  0.00  0.00    -0.295 N 
ATOM     43  O   UNL     1       4.545   0.331   3.245  0.00  0.00    -0.227 OA
ATOM     44  H   UNL     1       6.336  -0.636   0.839  0.00  0.00    +0.148 HD
ATOM     45  H   UNL     1       6.869   0.142   2.319  0.00  0.00    +0.148 HD
ENDBRANCH  40  41
ENDBRANCH  14  40
TORSDOF 8
