REMARK  Name = 
REMARK  14 active torsions:
REMARK  status: ('A' for Active; 'I' for Inactive)
REMARK    1  A    between atoms: C_1  and  O_2
REMARK    2  A    between atoms: O_2  and  C_3
REMARK    3  A    between atoms: C_6  and  C_7
REMARK    4  A    between atoms: C_9  and  O_10
REMARK    5  A    between atoms: O_10  and  C_11
REMARK    6  A    between atoms: C_12  and  O_13
REMARK    7  A    between atoms: C_14  and  C_15
REMARK    8  A    between atoms: C_17  and  C_18
REMARK    9  A    between atoms: C_19  and  O_20
REMARK   10  A    between atoms: O_20  and  C_21
REMARK   11  A    between atoms: C_24  and  O_25
REMARK   12  A    between atoms: O_25  and  C_26
REMARK   13  A    between atoms: C_30  and  C_31
REMARK   14  A    between atoms: C_37  and  O_38
REMARK                            x       y       z     vdW  Elec       q    Type
REMARK                         _______ _______ _______ _____ _____    ______ ____
ROOT
ATOM      1  C   UNL     1      -0.579   1.309   4.532  0.00  0.00    +0.168 C 
ATOM      2  C   UNL     1      -0.471   0.888   3.259  0.00  0.00    +0.047 C 
ATOM      3  C   UNL     1       0.568  -0.082   2.749  0.00  0.00    +0.046 C 
ATOM      4  C   UNL     1       1.376   0.397   1.521  0.00  0.00    -0.007 C 
ATOM      5  C   UNL     1       2.203   1.642   1.872  0.00  0.00    +0.008 C 
ATOM      6  C   UNL     1       2.322  -0.685   0.954  0.00  0.00    +0.037 C 
ATOM      7  C   UNL     1       1.711  -2.069   0.681  0.00  0.00    +0.147 C 
ATOM      8  C   UNL     1       0.431  -2.081  -0.198  0.00  0.00    +0.150 C 
ATOM      9  C   UNL     1       0.522  -1.481  -1.636  0.00  0.00    +0.040 C 
ATOM     10  C   UNL     1       1.440  -2.265  -2.579  0.00  0.00    +0.014 C 
ATOM     11  C   UNL     1      -0.881  -1.450  -2.231  0.00  0.00    -0.019 C 
ATOM     12  C   UNL     1      -1.482  -0.487  -2.962  0.00  0.00    -0.033 C 
ATOM     13  C   UNL     1      -2.917  -0.682  -3.389  0.00  0.00    +0.042 C 
ATOM     14  C   UNL     1      -0.855   0.807  -3.484  0.00  0.00    +0.236 C 
ATOM     15  C   UNL     1      -0.686   1.922  -2.390  0.00  0.00    +0.186 C 
ATOM     16  C   UNL     1      -1.412   3.182  -2.812  0.00  0.00    +0.008 C 
ATOM     17  C   UNL     1      -2.641   3.601  -2.471  0.00  0.00    -0.001 C 
ATOM     18  C   UNL     1      -3.621   2.908  -1.667  0.00  0.00    +0.008 C 
ATOM     19  C   UNL     1      -3.695   2.739  -0.331  0.00  0.00    +0.013 C 
ATOM     20  C   UNL     1      -4.861   2.000   0.267  0.00  0.00    +0.049 C 
ATOM     21  C   UNL     1      -2.667   3.267   0.628  0.00  0.00    +0.264 C 
ATOM     22  O   UNL     1      -1.582   3.717   0.295  0.00  0.00    -0.268 OA
ATOM     23  N   UNL     1      -3.070   3.270   1.940  0.00  0.00    -0.173 NA
ATOM     24  C   UNL     1      -2.449   2.459   2.745  0.00  0.00    +0.107 C 
ATOM     25  C   UNL     1      -2.639   2.611   4.202  0.00  0.00    +0.078 C 
ATOM     26  C   UNL     1      -1.728   2.067   5.018  0.00  0.00    +0.161 C 
ATOM     27  C   UNL     1      -1.535   1.318   2.312  0.00  0.00    +0.209 C 
ATOM     28  O   UNL     1      -1.744   0.739   1.255  0.00  0.00    -0.285 OA
ENDROOT
BRANCH   7  29
ATOM     29  O   UNL     1       2.673  -2.947   0.059  0.00  0.00    -0.377 OA
ATOM     30  C   UNL     1       3.688  -3.414   0.938  0.00  0.00    +0.194 C 
ENDBRANCH   7  29
BRANCH   8  31
ATOM     31  O   UNL     1       0.009  -3.463  -0.271  0.00  0.00    -0.389 OA
ATOM     32  H   UNL     1       0.821  -3.961  -0.493  0.00  0.00    +0.210 HD
ENDBRANCH   8  31
BRANCH  26  33
ATOM     33  O   UNL     1      -1.815   2.195   6.389  0.00  0.00    -0.503 OA
ATOM     34  H   UNL     1      -2.626   2.679   6.620  0.00  0.00    +0.292 HD
ENDBRANCH  26  33
BRANCH   1  36
ATOM     35  C   UNL     1       1.238   1.915   5.848  0.00  0.00    +0.277 C 
ATOM     36  O   UNL     1       0.322   0.879   5.492  0.00  0.00    -0.491 OA
ENDBRANCH   1  36
BRANCH  15  37
ATOM     37  O   UNL     1       0.719   2.215  -2.224  0.00  0.00    -0.372 OA
ATOM     38  C   UNL     1       1.006   3.123  -1.173  0.00  0.00    +0.195 C 
ENDBRANCH  15  37
BRANCH  14  39
ATOM     39  O   UNL     1       0.392   0.461  -4.125  0.00  0.00    -0.440 OA
BRANCH  39  40
ATOM     40  C   UNL     1       0.811   1.311  -5.082  0.00  0.00    +0.398 C 
ATOM     41  N   UNL     1       2.017   0.911  -5.545  0.00  0.00    -0.295 N 
ATOM     42  O   UNL     1       0.222   2.289  -5.512  0.00  0.00    -0.227 OA
ATOM     43  H   UNL     1       2.473   1.451  -6.263  0.00  0.00    +0.148 HD
ATOM     44  H   UNL     1       2.457   0.103  -5.135  0.00  0.00    +0.148 HD
ENDBRANCH  39  40
ENDBRANCH  14  39
TORSDOF 7
