REMARK  Name = 
REMARK  14 active torsions:
REMARK  status: ('A' for Active; 'I' for Inactive)
REMARK    1  A    between atoms: C_1  and  O_2
REMARK    2  A    between atoms: O_2  and  C_3
REMARK    3  A    between atoms: C_6  and  C_7
REMARK    4  A    between atoms: C_9  and  O_10
REMARK    5  A    between atoms: O_10  and  C_11
REMARK    6  A    between atoms: C_12  and  O_13
REMARK    7  A    between atoms: C_14  and  C_15
REMARK    8  A    between atoms: C_17  and  C_18
REMARK    9  A    between atoms: C_19  and  O_20
REMARK   10  A    between atoms: O_20  and  C_21
REMARK   11  A    between atoms: C_21  and  O_23
REMARK   12  A    between atoms: C_24  and  O_25
REMARK   13  A    between atoms: O_25  and  C_26
REMARK   14  A    between atoms: C_30  and  C_31
REMARK                            x       y       z     vdW  Elec       q    Type
REMARK                         _______ _______ _______ _____ _____    ______ ____
ROOT
ATOM      1  C   UNL     1      -3.273   1.478  -0.032  0.00  0.00    +0.173 C 
ATOM      2  C   UNL     1      -2.722   0.690  -0.973  0.00  0.00    +0.047 C 
ATOM      3  C   UNL     1      -3.366  -0.628  -1.378  0.00  0.00    +0.046 C 
ATOM      4  C   UNL     1      -3.329  -1.713  -0.264  0.00  0.00    -0.007 C 
ATOM      5  C   UNL     1      -4.755  -2.215   0.020  0.00  0.00    +0.008 C 
ATOM      6  C   UNL     1      -2.454  -2.937  -0.611  0.00  0.00    +0.037 C 
ATOM      7  C   UNL     1      -0.981  -2.696  -0.999  0.00  0.00    +0.147 C 
ATOM      8  C   UNL     1      -0.081  -2.192   0.167  0.00  0.00    +0.150 C 
ATOM      9  C   UNL     1       1.415  -2.073  -0.261  0.00  0.00    +0.040 C 
ATOM     10  C   UNL     1       1.639  -1.056  -1.370  0.00  0.00    +0.014 C 
ATOM     11  C   UNL     1       2.415  -1.966   0.891  0.00  0.00    -0.019 C 
ATOM     12  C   UNL     1       3.034  -0.958   1.554  0.00  0.00    -0.033 C 
ATOM     13  C   UNL     1       4.120  -1.336   2.548  0.00  0.00    +0.042 C 
ATOM     14  C   UNL     1       2.789   0.562   1.536  0.00  0.00    +0.236 C 
ATOM     15  C   UNL     1       3.700   1.464   0.618  0.00  0.00    +0.186 C 
ATOM     16  C   UNL     1       4.150   0.846  -0.678  0.00  0.00    +0.008 C 
ATOM     17  C   UNL     1       4.178   1.363  -1.917  0.00  0.00    -0.001 C 
ATOM     18  C   UNL     1       3.811   2.689  -2.343  0.00  0.00    +0.008 C 
ATOM     19  C   UNL     1       2.590   3.147  -2.670  0.00  0.00    +0.012 C 
ATOM     20  C   UNL     1       2.369   4.523  -3.227  0.00  0.00    +0.049 C 
ATOM     21  C   UNL     1       1.365   2.285  -2.606  0.00  0.00    +0.244 C 
ATOM     22  O   UNL     1       1.225   1.366  -3.392  0.00  0.00    -0.270 OA
ATOM     23  N   UNL     1       0.515   2.746  -1.624  0.00  0.00    -0.279 N 
ATOM     24  C   UNL     1      -0.731   2.315  -1.197  0.00  0.00    +0.085 C 
ATOM     25  C   UNL     1      -1.310   3.054  -0.241  0.00  0.00    +0.081 C 
ATOM     26  C   UNL     1      -2.577   2.713   0.409  0.00  0.00    +0.222 C 
ATOM     27  O   UNL     1      -2.973   3.432   1.322  0.00  0.00    -0.284 OA
ATOM     28  C   UNL     1      -1.479   1.110  -1.708  0.00  0.00    +0.207 C 
ATOM     29  O   UNL     1      -1.158   0.504  -2.722  0.00  0.00    -0.286 OA
ATOM     30  H   UNL     1       0.894   3.531  -1.108  0.00  0.00    +0.155 HD
ENDROOT
BRANCH   7  31
ATOM     31  O   UNL     1      -0.452  -3.959  -1.457  0.00  0.00    -0.377 OA
ATOM     32  C   UNL     1      -0.554  -4.113  -2.868  0.00  0.00    +0.194 C 
ENDBRANCH   7  31
BRANCH   8  33
ATOM     33  O   UNL     1      -0.575  -0.938   0.630  0.00  0.00    -0.389 OA
ATOM     34  H   UNL     1       0.127  -0.541   1.180  0.00  0.00    +0.210 HD
ENDBRANCH   8  33
BRANCH  15  35
ATOM     35  O   UNL     1       4.938   1.750   1.304  0.00  0.00    -0.372 OA
ATOM     36  C   UNL     1       4.881   2.944   2.073  0.00  0.00    +0.195 C 
ENDBRANCH  15  35
BRANCH   1  38
ATOM     37  C   UNL     1      -5.444   2.111   0.648  0.00  0.00    +0.277 C 
ATOM     38  O   UNL     1      -4.452   1.089   0.591  0.00  0.00    -0.491 OA
ENDBRANCH   1  38
BRANCH  14  39
ATOM     39  O   UNL     1       1.380   0.795   1.346  0.00  0.00    -0.439 OA
BRANCH  39  40
ATOM     40  C   UNL     1       0.849   1.804   2.060  0.00  0.00    +0.381 C 
ATOM     41  N   UNL     1       1.456   2.863   2.436  0.00  0.00    -0.233 NA
ATOM     42  H   UNL     1       0.829   3.463   2.975  0.00  0.00    +0.193 HD
BRANCH  40  43
ATOM     43  O   UNL     1      -0.436   1.573   2.325  0.00  0.00    -0.466 OA
ATOM     44  H   UNL     1      -0.850   2.276   2.847  0.00  0.00    +0.297 HD
ENDBRANCH  40  43
ENDBRANCH  39  40
ENDBRANCH  14  39
TORSDOF 7
