REMARK  Name = 
REMARK  14 active torsions:
REMARK  status: ('A' for Active; 'I' for Inactive)
REMARK    1  A    between atoms: C_1  and  O_2
REMARK    2  A    between atoms: O_2  and  C_3
REMARK    3  A    between atoms: C_6  and  C_7
REMARK    4  A    between atoms: C_9  and  O_10
REMARK    5  A    between atoms: O_10  and  C_11
REMARK    6  A    between atoms: C_12  and  O_13
REMARK    7  A    between atoms: C_14  and  C_15
REMARK    8  A    between atoms: C_17  and  C_18
REMARK    9  A    between atoms: C_19  and  O_20
REMARK   10  A    between atoms: O_20  and  C_21
REMARK   11  A    between atoms: C_24  and  O_25
REMARK   12  A    between atoms: O_25  and  C_26
REMARK   13  A    between atoms: C_30  and  C_31
REMARK   14  A    between atoms: C_32  and  O_33
REMARK                            x       y       z     vdW  Elec       q    Type
REMARK                         _______ _______ _______ _____ _____    ______ ____
ROOT
ATOM      1  C   UNL     1      -3.554  -3.070  -0.505  0.00  0.00    +0.173 C 
ATOM      2  C   UNL     1      -3.027  -1.867  -0.209  0.00  0.00    +0.047 C 
ATOM      3  C   UNL     1      -3.725  -0.569  -0.554  0.00  0.00    +0.046 C 
ATOM      4  C   UNL     1      -3.186   0.069  -1.856  0.00  0.00    -0.007 C 
ATOM      5  C   UNL     1      -4.348   0.615  -2.696  0.00  0.00    +0.008 C 
ATOM      6  C   UNL     1      -2.053   1.113  -1.649  0.00  0.00    +0.037 C 
ATOM      7  C   UNL     1      -2.347   2.299  -0.704  0.00  0.00    +0.147 C 
ATOM      8  C   UNL     1      -1.191   3.344  -0.609  0.00  0.00    +0.150 C 
ATOM      9  C   UNL     1      -0.068   3.079   0.428  0.00  0.00    +0.040 C 
ATOM     10  C   UNL     1      -0.617   2.898   1.850  0.00  0.00    +0.014 C 
ATOM     11  C   UNL     1       0.866   1.929   0.102  0.00  0.00    -0.019 C 
ATOM     12  C   UNL     1       2.163   2.022  -0.268  0.00  0.00    -0.033 C 
ATOM     13  C   UNL     1       2.856   3.335  -0.550  0.00  0.00    +0.042 C 
ATOM     14  C   UNL     1       3.091   0.800  -0.391  0.00  0.00    +0.236 C 
ATOM     15  C   UNL     1       4.014   0.584   0.860  0.00  0.00    +0.186 C 
ATOM     16  C   UNL     1       3.285   0.738   2.178  0.00  0.00    +0.008 C 
ATOM     17  C   UNL     1       2.938  -0.219   3.052  0.00  0.00    -0.001 C 
ATOM     18  C   UNL     1       3.201  -1.626   2.894  0.00  0.00    +0.008 C 
ATOM     19  C   UNL     1       2.377  -2.565   2.393  0.00  0.00    +0.011 C 
ATOM     20  C   UNL     1       2.840  -3.987   2.240  0.00  0.00    +0.049 C 
ATOM     21  C   UNL     1       0.969  -2.335   1.959  0.00  0.00    +0.216 C 
ATOM     22  N   UNL     1       0.448  -2.983   0.967  0.00  0.00    -0.209 NA
ATOM     23  C   UNL     1      -0.891  -2.994   0.654  0.00  0.00    +0.118 C 
ATOM     24  C   UNL     1      -1.448  -4.172   0.354  0.00  0.00    +0.086 C 
ATOM     25  C   UNL     1      -2.833  -4.316  -0.110  0.00  0.00    +0.223 C 
ATOM     26  O   UNL     1      -3.325  -5.435  -0.189  0.00  0.00    -0.284 OA
ATOM     27  C   UNL     1      -1.734  -1.764   0.521  0.00  0.00    +0.211 C 
ATOM     28  O   UNL     1      -1.375  -0.699   1.021  0.00  0.00    -0.285 OA
ENDROOT
BRANCH   7  29
ATOM     29  O   UNL     1      -3.521   2.960  -1.217  0.00  0.00    -0.377 OA
ATOM     30  C   UNL     1      -4.312   3.575  -0.207  0.00  0.00    +0.194 C 
ENDBRANCH   7  29
BRANCH   8  31
ATOM     31  O   UNL     1      -0.609   3.622  -1.893  0.00  0.00    -0.389 OA
ATOM     32  H   UNL     1      -0.015   2.882  -2.110  0.00  0.00    +0.210 HD
ENDBRANCH   8  31
BRANCH  21  33
ATOM     33  O   UNL     1       0.331  -1.478   2.770  0.00  0.00    -0.492 OA
ATOM     34  H   UNL     1      -0.429  -1.063   2.323  0.00  0.00    +0.294 HD
ENDBRANCH  21  33
BRANCH   1  36
ATOM     35  C   UNL     1      -4.900  -4.133  -2.152  0.00  0.00    +0.277 C 
ATOM     36  O   UNL     1      -4.786  -3.132  -1.143  0.00  0.00    -0.491 OA
ENDBRANCH   1  36
BRANCH  15  37
ATOM     37  O   UNL     1       5.082   1.549   0.891  0.00  0.00    -0.372 OA
ATOM     38  C   UNL     1       6.213   1.136   0.134  0.00  0.00    +0.195 C 
ENDBRANCH  15  37
BRANCH  14  39
ATOM     39  O   UNL     1       2.319  -0.399  -0.626  0.00  0.00    -0.440 OA
BRANCH  39  40
ATOM     40  C   UNL     1       3.000  -1.373  -1.271  0.00  0.00    +0.398 C 
ATOM     41  N   UNL     1       2.259  -2.498  -1.346  0.00  0.00    -0.295 N 
ATOM     42  O   UNL     1       4.137  -1.296  -1.709  0.00  0.00    -0.227 OA
ATOM     43  H   UNL     1       2.650  -3.318  -1.783  0.00  0.00    +0.148 HD
ATOM     44  H   UNL     1       1.391  -2.560  -0.831  0.00  0.00    +0.148 HD
ENDBRANCH  39  40
ENDBRANCH  14  39
TORSDOF 7
