REMARK  Name = 
REMARK  13 active torsions:
REMARK  status: ('A' for Active; 'I' for Inactive)
REMARK    1  A    between atoms: C_1  and  O_2
REMARK    2  A    between atoms: O_2  and  C_3
REMARK    3  A    between atoms: C_6  and  C_7
REMARK    4  A    between atoms: C_9  and  O_10
REMARK    5  A    between atoms: O_10  and  C_11
REMARK    6  A    between atoms: C_12  and  O_13
REMARK    7  A    between atoms: C_14  and  C_15
REMARK    8  A    between atoms: C_17  and  C_18
REMARK    9  A    between atoms: C_19  and  O_20
REMARK   10  A    between atoms: O_20  and  C_21
REMARK   11  A    between atoms: C_24  and  O_25
REMARK   12  A    between atoms: O_25  and  C_26
REMARK   13  A    between atoms: C_30  and  C_31
REMARK                            x       y       z     vdW  Elec       q    Type
REMARK                         _______ _______ _______ _____ _____    ______ ____
ROOT
ATOM      1  C   UNL     1       0.583  -3.606   1.861  0.00  0.00    +0.173 C 
ATOM      2  C   UNL     1       1.195  -2.486   2.283  0.00  0.00    +0.047 C 
ATOM      3  C   UNL     1       2.695  -2.307   2.272  0.00  0.00    +0.046 C 
ATOM      4  C   UNL     1       3.278  -1.147   1.421  0.00  0.00    -0.007 C 
ATOM      5  C   UNL     1       4.810  -1.231   1.532  0.00  0.00    +0.008 C 
ATOM      6  C   UNL     1       2.792  -1.173  -0.053  0.00  0.00    +0.037 C 
ATOM      7  C   UNL     1       3.390  -0.065  -0.944  0.00  0.00    +0.147 C 
ATOM      8  C   UNL     1       3.138  -0.267  -2.470  0.00  0.00    +0.150 C 
ATOM      9  C   UNL     1       1.718  -0.020  -3.095  0.00  0.00    +0.040 C 
ATOM     10  C   UNL     1       0.801  -1.208  -2.834  0.00  0.00    +0.014 C 
ATOM     11  C   UNL     1       1.177   1.383  -2.852  0.00  0.00    -0.019 C 
ATOM     12  C   UNL     1       0.009   1.932  -2.443  0.00  0.00    -0.033 C 
ATOM     13  C   UNL     1      -0.032   3.448  -2.315  0.00  0.00    +0.042 C 
ATOM     14  C   UNL     1      -1.317   1.230  -2.115  0.00  0.00    +0.236 C 
ATOM     15  C   UNL     1      -1.568   0.825  -0.607  0.00  0.00    +0.186 C 
ATOM     16  C   UNL     1      -0.716   1.577   0.392  0.00  0.00    +0.008 C 
ATOM     17  C   UNL     1      -1.082   2.311   1.455  0.00  0.00    -0.001 C 
ATOM     18  C   UNL     1      -2.409   2.519   1.989  0.00  0.00    +0.008 C 
ATOM     19  C   UNL     1      -3.265   1.607   2.493  0.00  0.00    +0.012 C 
ATOM     20  C   UNL     1      -4.623   2.000   3.001  0.00  0.00    +0.049 C 
ATOM     21  C   UNL     1      -3.007   0.128   2.554  0.00  0.00    +0.244 C 
ATOM     22  O   UNL     1      -3.917  -0.656   2.310  0.00  0.00    -0.270 OA
ATOM     23  N   UNL     1      -1.725  -0.213   2.907  0.00  0.00    -0.279 N 
ATOM     24  C   UNL     1      -1.091  -1.425   2.717  0.00  0.00    +0.085 C 
ATOM     25  C   UNL     1      -1.681  -2.567   2.360  0.00  0.00    +0.081 C 
ATOM     26  C   UNL     1      -0.900  -3.761   2.008  0.00  0.00    +0.222 C 
ATOM     27  O   UNL     1      -1.476  -4.827   1.817  0.00  0.00    -0.284 OA
ATOM     28  C   UNL     1       0.396  -1.371   2.855  0.00  0.00    +0.207 C 
ATOM     29  O   UNL     1       0.924  -0.403   3.398  0.00  0.00    -0.286 OA
ATOM     30  H   UNL     1      -1.095   0.537   3.180  0.00  0.00    +0.155 HD
ENDROOT
BRANCH   7  31
ATOM     31  O   UNL     1       2.882   1.211  -0.530  0.00  0.00    -0.377 OA
ATOM     32  C   UNL     1       3.864   2.086   0.003  0.00  0.00    +0.194 C 
ENDBRANCH   7  31
BRANCH   8  33
ATOM     33  O   UNL     1       4.077   0.583  -3.171  0.00  0.00    -0.389 OA
ATOM     34  H   UNL     1       3.956   1.477  -2.806  0.00  0.00    +0.210 HD
ENDBRANCH   8  33
BRANCH   1  36
ATOM     35  C   UNL     1       0.828  -5.214   0.150  0.00  0.00    +0.277 C 
ATOM     36  O   UNL     1       1.346  -4.652   1.355  0.00  0.00    -0.491 OA
ENDBRANCH   1  36
BRANCH  15  37
ATOM     37  O   UNL     1      -1.271  -0.566  -0.375  0.00  0.00    -0.372 OA
ATOM     38  C   UNL     1      -2.299  -1.437  -0.844  0.00  0.00    +0.195 C 
ENDBRANCH  15  37
BRANCH  14  39
ATOM     39  O   UNL     1      -2.369   2.144  -2.541  0.00  0.00    -0.440 OA
BRANCH  39  40
ATOM     40  C   UNL     1      -3.555   1.594  -2.864  0.00  0.00    +0.398 C 
ATOM     41  N   UNL     1      -4.418   2.558  -3.248  0.00  0.00    -0.295 N 
ATOM     42  O   UNL     1      -3.845   0.411  -2.821  0.00  0.00    -0.227 OA
ATOM     43  H   UNL     1      -5.354   2.298  -3.522  0.00  0.00    +0.148 HD
ATOM     44  H   UNL     1      -4.122   3.522  -3.272  0.00  0.00    +0.148 HD
ENDBRANCH  39  40
ENDBRANCH  14  39
TORSDOF 6
