REMARK  Name = 
REMARK  13 active torsions:
REMARK  status: ('A' for Active; 'I' for Inactive)
REMARK    1  A    between atoms: C_1  and  O_2
REMARK    2  A    between atoms: O_2  and  C_3
REMARK    3  A    between atoms: C_6  and  C_7
REMARK    4  A    between atoms: C_9  and  O_10
REMARK    5  A    between atoms: O_10  and  C_11
REMARK    6  A    between atoms: C_12  and  O_13
REMARK    7  A    between atoms: C_14  and  C_15
REMARK    8  A    between atoms: C_17  and  C_18
REMARK    9  A    between atoms: C_19  and  O_20
REMARK   10  A    between atoms: O_20  and  C_21
REMARK   11  A    between atoms: C_24  and  O_25
REMARK   12  A    between atoms: O_25  and  C_26
REMARK   13  A    between atoms: C_30  and  C_31
REMARK                            x       y       z     vdW  Elec       q    Type
REMARK                         _______ _______ _______ _____ _____    ______ ____
ROOT
ATOM      1  C   UNL     1      -0.266  -2.654  -3.818  0.00  0.00    +0.169 C 
ATOM      2  C   UNL     1       0.211  -1.863  -2.837  0.00  0.00    +0.046 C 
ATOM      3  C   UNL     1       0.919  -0.551  -3.116  0.00  0.00    +0.046 C 
ATOM      4  C   UNL     1       2.352  -0.375  -2.566  0.00  0.00    -0.007 C 
ATOM      5  C   UNL     1       3.309  -1.311  -3.317  0.00  0.00    +0.008 C 
ATOM      6  C   UNL     1       2.821   1.097  -2.717  0.00  0.00    +0.037 C 
ATOM      7  C   UNL     1       2.526   2.036  -1.513  0.00  0.00    +0.147 C 
ATOM      8  C   UNL     1       1.013   2.325  -1.284  0.00  0.00    +0.150 C 
ATOM      9  C   UNL     1       0.766   3.362  -0.144  0.00  0.00    +0.040 C 
ATOM     10  C   UNL     1      -0.288   4.439  -0.426  0.00  0.00    +0.014 C 
ATOM     11  C   UNL     1       0.580   2.757   1.235  0.00  0.00    -0.019 C 
ATOM     12  C   UNL     1      -0.248   1.817   1.754  0.00  0.00    -0.033 C 
ATOM     13  C   UNL     1       0.069   1.384   3.173  0.00  0.00    +0.042 C 
ATOM     14  C   UNL     1      -1.415   1.046   1.083  0.00  0.00    +0.236 C 
ATOM     15  C   UNL     1      -2.712   0.868   1.977  0.00  0.00    +0.186 C 
ATOM     16  C   UNL     1      -2.654  -0.090   3.153  0.00  0.00    +0.008 C 
ATOM     17  C   UNL     1      -2.150  -1.332   3.245  0.00  0.00    -0.001 C 
ATOM     18  C   UNL     1      -1.595  -2.102   2.157  0.00  0.00    +0.008 C 
ATOM     19  C   UNL     1      -0.574  -2.977   2.255  0.00  0.00    +0.013 C 
ATOM     20  C   UNL     1       0.217  -3.285   3.492  0.00  0.00    +0.049 C 
ATOM     21  C   UNL     1      -0.045  -3.650   1.020  0.00  0.00    +0.263 C 
ATOM     22  O   UNL     1       1.123  -4.003   0.924  0.00  0.00    -0.268 OA
ATOM     23  N   UNL     1      -0.997  -3.955   0.085  0.00  0.00    -0.177 NA
ATOM     24  C   UNL     1      -0.942  -3.339  -1.058  0.00  0.00    +0.089 C 
ATOM     25  C   UNL     1      -1.858  -3.772  -2.151  0.00  0.00    +0.139 C 
ATOM     26  C   UNL     1      -1.157  -3.816  -3.474  0.00  0.00    +0.203 C 
ATOM     27  O   UNL     1      -1.367  -4.726  -4.274  0.00  0.00    -0.288 OA
ATOM     28  C   UNL     1      -0.047  -2.164  -1.397  0.00  0.00    +0.205 C 
ATOM     29  O   UNL     1       0.394  -1.466  -0.496  0.00  0.00    -0.286 OA
ENDROOT
BRANCH   7  30
ATOM     30  O   UNL     1       3.086   1.529  -0.294  0.00  0.00    -0.377 OA
ATOM     31  C   UNL     1       4.503   1.565  -0.239  0.00  0.00    +0.194 C 
ENDBRANCH   7  30
BRANCH   8  32
ATOM     32  O   UNL     1       0.428   2.769  -2.514  0.00  0.00    -0.389 OA
ATOM     33  H   UNL     1      -0.532   2.647  -2.413  0.00  0.00    +0.210 HD
ENDBRANCH   8  32
BRANCH   1  35
ATOM     34  C   UNL     1      -0.941  -2.660  -6.112  0.00  0.00    +0.277 C 
ATOM     35  O   UNL     1       0.052  -2.357  -5.138  0.00  0.00    -0.491 OA
ENDBRANCH   1  35
BRANCH  15  36
ATOM     36  O   UNL     1      -3.827   0.443   1.167  0.00  0.00    -0.372 OA
ATOM     37  C   UNL     1      -5.075   0.963   1.605  0.00  0.00    +0.195 C 
ENDBRANCH  15  36
BRANCH  14  38
ATOM     38  O   UNL     1      -1.834   1.760  -0.109  0.00  0.00    -0.440 OA
BRANCH  38  39
ATOM     39  C   UNL     1      -2.274   1.019  -1.148  0.00  0.00    +0.398 C 
ATOM     40  N   UNL     1      -2.744   1.843  -2.114  0.00  0.00    -0.295 N 
ATOM     41  O   UNL     1      -2.253  -0.196  -1.277  0.00  0.00    -0.227 OA
ATOM     42  H   UNL     1      -3.143   1.439  -2.948  0.00  0.00    +0.148 HD
ATOM     43  H   UNL     1      -2.840   2.830  -1.928  0.00  0.00    +0.148 HD
ENDBRANCH  38  39
ENDBRANCH  14  38
TORSDOF 6
