REMARK  Name = 
REMARK  13 active torsions:
REMARK  status: ('A' for Active; 'I' for Inactive)
REMARK    1  A    between atoms: C_1  and  O_2
REMARK    2  A    between atoms: O_2  and  C_3
REMARK    3  A    between atoms: C_6  and  C_7
REMARK    4  A    between atoms: C_9  and  O_10
REMARK    5  A    between atoms: O_10  and  C_11
REMARK    6  A    between atoms: C_12  and  O_13
REMARK    7  A    between atoms: C_14  and  C_15
REMARK    8  A    between atoms: C_17  and  C_18
REMARK    9  A    between atoms: C_19  and  O_20
REMARK   10  A    between atoms: O_20  and  C_21
REMARK   11  A    between atoms: C_24  and  O_25
REMARK   12  A    between atoms: O_25  and  C_26
REMARK   13  A    between atoms: C_30  and  C_31
REMARK                            x       y       z     vdW  Elec       q    Type
REMARK                         _______ _______ _______ _____ _____    ______ ____
ROOT
ATOM      1  C   UNL     1       1.392   0.839   4.352  0.00  0.00    +0.173 C 
ATOM      2  C   UNL     1       1.484  -0.284   3.616  0.00  0.00    +0.047 C 
ATOM      3  C   UNL     1       2.647  -1.240   3.715  0.00  0.00    +0.046 C 
ATOM      4  C   UNL     1       3.739  -1.296   2.614  0.00  0.00    -0.007 C 
ATOM      5  C   UNL     1       3.602  -2.522   1.706  0.00  0.00    +0.008 C 
ATOM      6  C   UNL     1       4.167   0.010   1.899  0.00  0.00    +0.037 C 
ATOM      7  C   UNL     1       3.315   0.746   0.830  0.00  0.00    +0.147 C 
ATOM      8  C   UNL     1       2.757  -0.128  -0.323  0.00  0.00    +0.150 C 
ATOM      9  C   UNL     1       1.899   0.667  -1.355  0.00  0.00    +0.040 C 
ATOM     10  C   UNL     1       2.699   1.743  -2.096  0.00  0.00    +0.014 C 
ATOM     11  C   UNL     1       1.271  -0.249  -2.389  0.00  0.00    -0.019 C 
ATOM     12  C   UNL     1      -0.002  -0.421  -2.812  0.00  0.00    -0.033 C 
ATOM     13  C   UNL     1      -0.220  -1.442  -3.922  0.00  0.00    +0.042 C 
ATOM     14  C   UNL     1      -1.334   0.224  -2.387  0.00  0.00    +0.236 C 
ATOM     15  C   UNL     1      -1.457   1.071  -1.077  0.00  0.00    +0.186 C 
ATOM     16  C   UNL     1      -2.896   1.332  -0.657  0.00  0.00    +0.008 C 
ATOM     17  C   UNL     1      -3.866   0.486  -0.278  0.00  0.00    -0.001 C 
ATOM     18  C   UNL     1      -3.846  -0.954  -0.238  0.00  0.00    +0.008 C 
ATOM     19  C   UNL     1      -3.221  -1.847   0.554  0.00  0.00    +0.012 C 
ATOM     20  C   UNL     1      -3.451  -3.322   0.297  0.00  0.00    +0.049 C 
ATOM     21  C   UNL     1      -2.275  -1.625   1.703  0.00  0.00    +0.244 C 
ATOM     22  O   UNL     1      -1.834  -2.589   2.326  0.00  0.00    -0.270 OA
ATOM     23  N   UNL     1      -2.020  -0.325   2.058  0.00  0.00    -0.279 N 
ATOM     24  C   UNL     1      -0.907   0.097   2.764  0.00  0.00    +0.085 C 
ATOM     25  C   UNL     1      -0.937   1.257   3.422  0.00  0.00    +0.081 C 
ATOM     26  C   UNL     1       0.220   1.752   4.183  0.00  0.00    +0.222 C 
ATOM     27  O   UNL     1       0.171   2.880   4.663  0.00  0.00    -0.284 OA
ATOM     28  C   UNL     1       0.387  -0.664   2.685  0.00  0.00    +0.207 C 
ATOM     29  O   UNL     1       0.574  -1.527   1.834  0.00  0.00    -0.286 OA
ATOM     30  H   UNL     1      -2.734   0.356   1.839  0.00  0.00    +0.155 HD
ENDROOT
BRANCH   7  31
ATOM     31  O   UNL     1       2.262   1.510   1.435  0.00  0.00    -0.377 OA
ATOM     32  C   UNL     1       2.690   2.813   1.830  0.00  0.00    +0.194 C 
ENDBRANCH   7  31
BRANCH   8  33
ATOM     33  O   UNL     1       3.856  -0.777  -0.976  0.00  0.00    -0.389 OA
ATOM     34  H   UNL     1       3.499  -1.597  -1.362  0.00  0.00    +0.210 HD
ENDBRANCH   8  33
BRANCH   1  36
ATOM     35  C   UNL     1       2.034   1.680   6.471  0.00  0.00    +0.277 C 
ATOM     36  O   UNL     1       2.441   1.193   5.195  0.00  0.00    -0.491 OA
ENDBRANCH   1  36
BRANCH  15  37
ATOM     37  O   UNL     1      -0.844   2.365  -1.281  0.00  0.00    -0.372 OA
ATOM     38  C   UNL     1      -0.582   3.087  -0.083  0.00  0.00    +0.195 C 
ENDBRANCH  15  37
BRANCH  14  39
ATOM     39  O   UNL     1      -1.752   1.039  -3.514  0.00  0.00    -0.440 OA
BRANCH  39  40
ATOM     40  C   UNL     1      -3.003   0.857  -3.976  0.00  0.00    +0.398 C 
ATOM     41  N   UNL     1      -3.242   1.725  -4.983  0.00  0.00    -0.295 N 
ATOM     42  O   UNL     1      -3.825   0.044  -3.585  0.00  0.00    -0.227 OA
ATOM     43  H   UNL     1      -2.520   2.373  -5.258  0.00  0.00    +0.148 HD
ATOM     44  H   UNL     1      -4.137   1.714  -5.445  0.00  0.00    +0.148 HD
ENDBRANCH  39  40
ENDBRANCH  14  39
TORSDOF 6
