REMARK  Name = 
REMARK  13 active torsions:
REMARK  status: ('A' for Active; 'I' for Inactive)
REMARK    1  A    between atoms: C_1  and  O_2
REMARK    2  A    between atoms: O_2  and  C_3
REMARK    3  A    between atoms: C_6  and  C_7
REMARK    4  A    between atoms: C_9  and  O_10
REMARK    5  A    between atoms: O_10  and  C_11
REMARK    6  A    between atoms: C_12  and  O_13
REMARK    7  A    between atoms: C_14  and  C_15
REMARK    8  A    between atoms: C_17  and  C_18
REMARK    9  A    between atoms: C_19  and  O_20
REMARK   10  A    between atoms: O_20  and  C_21
REMARK   11  A    between atoms: C_24  and  O_25
REMARK   12  A    between atoms: O_25  and  C_26
REMARK   13  A    between atoms: C_30  and  C_31
REMARK                            x       y       z     vdW  Elec       q    Type
REMARK                         _______ _______ _______ _____ _____    ______ ____
ROOT
ATOM      1  C   UNL     1      -1.078  -0.330   4.534  0.00  0.00    +0.169 C 
ATOM      2  C   UNL     1      -0.481  -0.574   3.352  0.00  0.00    +0.046 C 
ATOM      3  C   UNL     1      -0.877  -1.598   2.318  0.00  0.00    +0.046 C 
ATOM      4  C   UNL     1      -2.330  -1.559   1.790  0.00  0.00    -0.007 C 
ATOM      5  C   UNL     1      -2.852  -0.147   1.493  0.00  0.00    +0.008 C 
ATOM      6  C   UNL     1      -2.577  -2.524   0.594  0.00  0.00    +0.037 C 
ATOM      7  C   UNL     1      -1.553  -2.614  -0.573  0.00  0.00    +0.147 C 
ATOM      8  C   UNL     1      -1.247  -1.253  -1.255  0.00  0.00    +0.150 C 
ATOM      9  C   UNL     1      -0.176  -1.316  -2.386  0.00  0.00    +0.040 C 
ATOM     10  C   UNL     1      -0.515  -2.358  -3.462  0.00  0.00    +0.014 C 
ATOM     11  C   UNL     1      -0.020   0.029  -3.075  0.00  0.00    -0.019 C 
ATOM     12  C   UNL     1       0.953   0.966  -3.063  0.00  0.00    -0.033 C 
ATOM     13  C   UNL     1       0.763   2.164  -3.984  0.00  0.00    +0.042 C 
ATOM     14  C   UNL     1       2.266   1.087  -2.270  0.00  0.00    +0.236 C 
ATOM     15  C   UNL     1       2.491   0.305  -0.931  0.00  0.00    +0.186 C 
ATOM     16  C   UNL     1       3.522   0.947  -0.011  0.00  0.00    +0.008 C 
ATOM     17  C   UNL     1       3.613   2.186   0.501  0.00  0.00    -0.001 C 
ATOM     18  C   UNL     1       2.763   3.329   0.280  0.00  0.00    +0.008 C 
ATOM     19  C   UNL     1       1.487   3.524   0.648  0.00  0.00    +0.013 C 
ATOM     20  C   UNL     1       0.728   4.778   0.345  0.00  0.00    +0.049 C 
ATOM     21  C   UNL     1       0.707   2.507   1.389  0.00  0.00    +0.263 C 
ATOM     22  O   UNL     1      -0.016   1.710   0.805  0.00  0.00    -0.268 OA
ATOM     23  N   UNL     1       0.746   2.700   2.747  0.00  0.00    -0.177 NA
ATOM     24  C   UNL     1       0.671   1.642   3.494  0.00  0.00    +0.089 C 
ATOM     25  C   UNL     1       0.488   1.727   4.969  0.00  0.00    +0.139 C 
ATOM     26  C   UNL     1      -0.526   0.725   5.480  0.00  0.00    +0.203 C 
ATOM     27  O   UNL     1      -0.882   0.763   6.657  0.00  0.00    -0.288 OA
ATOM     28  C   UNL     1       0.712   0.227   3.006  0.00  0.00    +0.205 C 
ATOM     29  O   UNL     1       1.698  -0.198   2.431  0.00  0.00    -0.286 OA
ENDROOT
BRANCH   7  30
ATOM     30  O   UNL     1      -0.332  -3.223  -0.138  0.00  0.00    -0.377 OA
ATOM     31  C   UNL     1      -0.374  -4.643  -0.108  0.00  0.00    +0.194 C 
ENDBRANCH   7  30
BRANCH   8  32
ATOM     32  O   UNL     1      -2.482  -0.717  -1.752  0.00  0.00    -0.389 OA
ATOM     33  H   UNL     1      -2.325   0.235  -1.890  0.00  0.00    +0.210 HD
ENDBRANCH   8  32
BRANCH   1  35
ATOM     34  C   UNL     1      -3.215  -0.429   5.561  0.00  0.00    +0.277 C 
ATOM     35  O   UNL     1      -2.152  -1.123   4.914  0.00  0.00    -0.491 OA
ENDBRANCH   1  35
BRANCH  15  36
ATOM     36  O   UNL     1       2.962  -1.029  -1.238  0.00  0.00    -0.372 OA
ATOM     37  C   UNL     1       2.802  -1.952  -0.165  0.00  0.00    +0.195 C 
ENDBRANCH  15  36
BRANCH  14  38
ATOM     38  O   UNL     1       3.328   0.774  -3.206  0.00  0.00    -0.440 OA
BRANCH  38  39
ATOM     39  C   UNL     1       4.351   1.643  -3.286  0.00  0.00    +0.398 C 
ATOM     40  N   UNL     1       5.295   1.151  -4.119  0.00  0.00    -0.295 N 
ATOM     41  O   UNL     1       4.454   2.723  -2.728  0.00  0.00    -0.227 OA
ATOM     42  H   UNL     1       5.155   0.243  -4.536  0.00  0.00    +0.148 HD
ATOM     43  H   UNL     1       6.135   1.681  -4.286  0.00  0.00    +0.148 HD
ENDBRANCH  38  39
ENDBRANCH  14  38
TORSDOF 6
