REMARK  Name = 
REMARK  15 active torsions:
REMARK  status: ('A' for Active; 'I' for Inactive)
REMARK    1  A    between atoms: C_1  and  O_2
REMARK    2  A    between atoms: O_2  and  C_3
REMARK    3  A    between atoms: C_6  and  C_7
REMARK    4  A    between atoms: C_9  and  O_10
REMARK    5  A    between atoms: O_10  and  C_11
REMARK    6  A    between atoms: C_12  and  O_13
REMARK    7  A    between atoms: C_14  and  C_15
REMARK    8  A    between atoms: C_17  and  C_18
REMARK    9  A    between atoms: C_19  and  O_20
REMARK   10  A    between atoms: O_20  and  C_21
REMARK   11  A    between atoms: C_21  and  O_23
REMARK   12  A    between atoms: C_24  and  O_25
REMARK   13  A    between atoms: O_25  and  C_26
REMARK   14  A    between atoms: C_30  and  C_31
REMARK   15  A    between atoms: C_32  and  O_33
REMARK                            x       y       z     vdW  Elec       q    Type
REMARK                         _______ _______ _______ _____ _____    ______ ____
ROOT
ATOM      1  C   UNL     1      -1.489  -1.871  -3.067  0.00  0.00    +0.173 C 
ATOM      2  C   UNL     1      -0.439  -1.916  -2.226  0.00  0.00    +0.047 C 
ATOM      3  C   UNL     1       0.522  -0.757  -2.067  0.00  0.00    +0.046 C 
ATOM      4  C   UNL     1       2.043  -0.985  -2.082  0.00  0.00    -0.007 C 
ATOM      5  C   UNL     1       2.479  -1.817  -3.296  0.00  0.00    +0.008 C 
ATOM      6  C   UNL     1       2.862   0.338  -2.076  0.00  0.00    +0.037 C 
ATOM      7  C   UNL     1       2.476   1.474  -1.085  0.00  0.00    +0.147 C 
ATOM      8  C   UNL     1       1.358   2.413  -1.630  0.00  0.00    +0.150 C 
ATOM      9  C   UNL     1       1.147   3.711  -0.795  0.00  0.00    +0.040 C 
ATOM     10  C   UNL     1       0.250   4.716  -1.547  0.00  0.00    +0.014 C 
ATOM     11  C   UNL     1       0.657   3.693   0.646  0.00  0.00    -0.019 C 
ATOM     12  C   UNL     1      -0.349   3.044   1.277  0.00  0.00    -0.033 C 
ATOM     13  C   UNL     1      -0.730   3.505   2.670  0.00  0.00    +0.042 C 
ATOM     14  C   UNL     1      -1.233   1.948   0.683  0.00  0.00    +0.236 C 
ATOM     15  C   UNL     1      -1.641   0.771   1.646  0.00  0.00    +0.186 C 
ATOM     16  C   UNL     1      -0.454   0.053   2.256  0.00  0.00    +0.008 C 
ATOM     17  C   UNL     1      -0.067  -1.232   2.311  0.00  0.00    -0.001 C 
ATOM     18  C   UNL     1      -0.716  -2.404   1.771  0.00  0.00    +0.008 C 
ATOM     19  C   UNL     1      -0.154  -3.627   1.714  0.00  0.00    +0.011 C 
ATOM     20  C   UNL     1       1.219  -4.016   2.176  0.00  0.00    +0.049 C 
ATOM     21  C   UNL     1      -0.929  -4.715   1.074  0.00  0.00    +0.216 C 
ATOM     22  N   UNL     1      -1.511  -4.898  -0.053  0.00  0.00    -0.209 NA
ATOM     23  C   UNL     1      -1.473  -3.943  -1.046  0.00  0.00    +0.118 C 
ATOM     24  C   UNL     1      -2.520  -3.844  -1.873  0.00  0.00    +0.086 C 
ATOM     25  C   UNL     1      -2.549  -2.918  -3.011  0.00  0.00    +0.223 C 
ATOM     26  O   UNL     1      -3.454  -2.990  -3.835  0.00  0.00    -0.284 OA
ATOM     27  C   UNL     1      -0.251  -3.128  -1.375  0.00  0.00    +0.211 C 
ATOM     28  O   UNL     1       0.862  -3.467  -0.987  0.00  0.00    -0.285 OA
ENDROOT
BRANCH   7  29
ATOM     29  O   UNL     1       2.114   0.957   0.197  0.00  0.00    -0.377 OA
ATOM     30  C   UNL     1       3.229   0.516   0.960  0.00  0.00    +0.194 C 
ENDBRANCH   7  29
BRANCH   8  31
ATOM     31  O   UNL     1       1.711   2.790  -2.976  0.00  0.00    -0.389 OA
ATOM     32  H   UNL     1       0.873   2.966  -3.439  0.00  0.00    +0.210 HD
ENDBRANCH   8  31
BRANCH  21  33
ATOM     33  O   UNL     1      -1.023  -5.737   1.947  0.00  0.00    -0.492 OA
ATOM     34  H   UNL     1      -1.522  -6.441   1.503  0.00  0.00    +0.294 HD
ENDBRANCH  21  33
BRANCH   1  36
ATOM     35  C   UNL     1      -1.448  -1.135  -5.267  0.00  0.00    +0.277 C 
ATOM     36  O   UNL     1      -1.696  -0.783  -3.906  0.00  0.00    -0.491 OA
ENDBRANCH   1  36
BRANCH  15  37
ATOM     37  O   UNL     1      -2.471  -0.155   0.923  0.00  0.00    -0.372 OA
ATOM     38  C   UNL     1      -3.800  -0.206   1.427  0.00  0.00    +0.195 C 
ENDBRANCH  15  37
BRANCH  14  39
ATOM     39  O   UNL     1      -2.451   2.607   0.253  0.00  0.00    -0.439 OA
BRANCH  39  40
ATOM     40  C   UNL     1      -2.921   2.295  -0.966  0.00  0.00    +0.381 C 
ATOM     41  N   UNL     1      -2.293   1.668  -1.885  0.00  0.00    -0.233 NA
ATOM     42  H   UNL     1      -2.869   1.524  -2.713  0.00  0.00    +0.193 HD
BRANCH  40  43
ATOM     43  O   UNL     1      -4.169   2.743  -1.129  0.00  0.00    -0.466 OA
ATOM     44  H   UNL     1      -4.505   2.520  -2.006  0.00  0.00    +0.297 HD
ENDBRANCH  40  43
ENDBRANCH  39  40
ENDBRANCH  14  39
TORSDOF 8
