REMARK  Name = 
REMARK  14 active torsions:
REMARK  status: ('A' for Active; 'I' for Inactive)
REMARK    1  A    between atoms: C_1  and  O_2
REMARK    2  A    between atoms: O_2  and  C_3
REMARK    3  A    between atoms: C_6  and  C_7
REMARK    4  A    between atoms: C_9  and  O_10
REMARK    5  A    between atoms: O_10  and  C_11
REMARK    6  A    between atoms: C_12  and  O_13
REMARK    7  A    between atoms: C_14  and  C_15
REMARK    8  A    between atoms: C_17  and  C_18
REMARK    9  A    between atoms: C_19  and  O_20
REMARK   10  A    between atoms: O_20  and  C_21
REMARK   11  A    between atoms: C_21  and  O_23
REMARK   12  A    between atoms: C_24  and  O_25
REMARK   13  A    between atoms: O_25  and  C_26
REMARK   14  A    between atoms: C_30  and  C_31
REMARK                            x       y       z     vdW  Elec       q    Type
REMARK                         _______ _______ _______ _____ _____    ______ ____
ROOT
ATOM      1  C   UNL     1      -2.717   2.862  -2.035  0.00  0.00    +0.173 C 
ATOM      2  C   UNL     1      -1.724   2.422  -2.828  0.00  0.00    +0.047 C 
ATOM      3  C   UNL     1      -1.879   1.387  -3.909  0.00  0.00    +0.046 C 
ATOM      4  C   UNL     1      -1.238  -0.005  -3.662  0.00  0.00    -0.007 C 
ATOM      5  C   UNL     1       0.277   0.065  -3.530  0.00  0.00    +0.008 C 
ATOM      6  C   UNL     1      -1.978  -0.870  -2.604  0.00  0.00    +0.037 C 
ATOM      7  C   UNL     1      -1.437  -1.085  -1.168  0.00  0.00    +0.147 C 
ATOM      8  C   UNL     1      -0.107  -1.885  -1.041  0.00  0.00    +0.150 C 
ATOM      9  C   UNL     1       0.148  -2.432   0.406  0.00  0.00    +0.040 C 
ATOM     10  C   UNL     1      -0.675  -3.683   0.730  0.00  0.00    +0.014 C 
ATOM     11  C   UNL     1       1.625  -2.757   0.578  0.00  0.00    -0.019 C 
ATOM     12  C   UNL     1       2.460  -2.481   1.606  0.00  0.00    -0.033 C 
ATOM     13  C   UNL     1       3.921  -2.845   1.461  0.00  0.00    +0.042 C 
ATOM     14  C   UNL     1       2.121  -1.863   2.974  0.00  0.00    +0.236 C 
ATOM     15  C   UNL     1       2.366  -0.314   3.089  0.00  0.00    +0.186 C 
ATOM     16  C   UNL     1       1.554   0.440   2.059  0.00  0.00    +0.008 C 
ATOM     17  C   UNL     1       1.855   1.263   1.045  0.00  0.00    -0.001 C 
ATOM     18  C   UNL     1       3.138   1.798   0.640  0.00  0.00    +0.008 C 
ATOM     19  C   UNL     1       3.389   2.533  -0.465  0.00  0.00    +0.012 C 
ATOM     20  C   UNL     1       4.762   2.987  -0.852  0.00  0.00    +0.049 C 
ATOM     21  C   UNL     1       2.326   2.844  -1.471  0.00  0.00    +0.244 C 
ATOM     22  O   UNL     1       2.442   2.431  -2.613  0.00  0.00    -0.270 OA
ATOM     23  N   UNL     1       1.279   3.561  -0.925  0.00  0.00    -0.279 N 
ATOM     24  C   UNL     1      -0.015   3.618  -1.403  0.00  0.00    +0.085 C 
ATOM     25  C   UNL     1      -0.998   4.057  -0.609  0.00  0.00    +0.081 C 
ATOM     26  C   UNL     1      -2.416   3.892  -0.985  0.00  0.00    +0.222 C 
ATOM     27  O   UNL     1      -3.277   4.509  -0.370  0.00  0.00    -0.284 OA
ATOM     28  C   UNL     1      -0.421   3.139  -2.758  0.00  0.00    +0.207 C 
ATOM     29  O   UNL     1       0.202   3.405  -3.777  0.00  0.00    -0.286 OA
ATOM     30  H   UNL     1       1.439   3.909   0.013  0.00  0.00    +0.155 HD
ENDROOT
BRANCH   7  31
ATOM     31  O   UNL     1      -1.319   0.172  -0.486  0.00  0.00    -0.377 OA
ATOM     32  C   UNL     1      -2.395   0.398   0.419  0.00  0.00    +0.194 C 
ENDBRANCH   7  31
BRANCH   8  33
ATOM     33  O   UNL     1      -0.059  -2.959  -1.990  0.00  0.00    -0.389 OA
ATOM     34  H   UNL     1      -0.834  -3.527  -1.849  0.00  0.00    +0.210 HD
ENDBRANCH   8  33
BRANCH  15  35
ATOM     35  O   UNL     1       3.753   0.023   3.009  0.00  0.00    -0.372 OA
ATOM     36  C   UNL     1       4.428  -0.110   4.253  0.00  0.00    +0.195 C 
ENDBRANCH  15  35
BRANCH   1  38
ATOM     37  C   UNL     1      -5.037   3.263  -2.204  0.00  0.00    +0.277 C 
ATOM     38  O   UNL     1      -3.984   2.304  -2.138  0.00  0.00    -0.491 OA
ENDBRANCH   1  38
BRANCH  14  39
ATOM     39  O   UNL     1       0.753  -2.186   3.321  0.00  0.00    -0.439 OA
BRANCH  39  40
ATOM     40  C   UNL     1       0.439  -2.217   4.624  0.00  0.00    +0.381 C 
ATOM     41  N   UNL     1       1.228  -1.950   5.594  0.00  0.00    -0.233 NA
ATOM     42  H   UNL     1       0.750  -2.045   6.491  0.00  0.00    +0.193 HD
BRANCH  40  43
ATOM     43  O   UNL     1      -0.840  -2.554   4.804  0.00  0.00    -0.466 OA
ATOM     44  H   UNL     1      -1.068  -2.602   5.741  0.00  0.00    +0.297 HD
ENDBRANCH  40  43
ENDBRANCH  39  40
ENDBRANCH  14  39
TORSDOF 7
