REMARK  Name = 
REMARK  14 active torsions:
REMARK  status: ('A' for Active; 'I' for Inactive)
REMARK    1  A    between atoms: C_1  and  O_2
REMARK    2  A    between atoms: O_2  and  C_3
REMARK    3  A    between atoms: C_6  and  C_7
REMARK    4  A    between atoms: C_9  and  O_10
REMARK    5  A    between atoms: O_10  and  C_11
REMARK    6  A    between atoms: C_12  and  O_13
REMARK    7  A    between atoms: C_14  and  C_15
REMARK    8  A    between atoms: C_17  and  C_18
REMARK    9  A    between atoms: C_19  and  O_20
REMARK   10  A    between atoms: O_20  and  C_21
REMARK   11  A    between atoms: C_24  and  O_25
REMARK   12  A    between atoms: O_25  and  C_26
REMARK   13  A    between atoms: C_30  and  C_31
REMARK   14  A    between atoms: C_37  and  O_38
REMARK                            x       y       z     vdW  Elec       q    Type
REMARK                         _______ _______ _______ _____ _____    ______ ____
ROOT
ATOM      1  C   UNL     1       1.740  -3.142  -3.449  0.00  0.00    +0.168 C 
ATOM      2  C   UNL     1       1.810  -3.443  -2.139  0.00  0.00    +0.047 C 
ATOM      3  C   UNL     1       2.988  -3.216  -1.227  0.00  0.00    +0.046 C 
ATOM      4  C   UNL     1       2.928  -1.917  -0.372  0.00  0.00    -0.007 C 
ATOM      5  C   UNL     1       3.050  -0.677  -1.262  0.00  0.00    +0.008 C 
ATOM      6  C   UNL     1       1.656  -1.865   0.504  0.00  0.00    +0.037 C 
ATOM      7  C   UNL     1       1.574  -0.753   1.578  0.00  0.00    +0.147 C 
ATOM      8  C   UNL     1       0.217  -0.877   2.342  0.00  0.00    +0.150 C 
ATOM      9  C   UNL     1      -0.132   0.216   3.392  0.00  0.00    +0.040 C 
ATOM     10  C   UNL     1       0.836   0.160   4.589  0.00  0.00    +0.014 C 
ATOM     11  C   UNL     1      -0.381   1.681   3.041  0.00  0.00    -0.019 C 
ATOM     12  C   UNL     1      -0.654   2.397   1.925  0.00  0.00    -0.033 C 
ATOM     13  C   UNL     1      -0.922   3.883   2.087  0.00  0.00    +0.042 C 
ATOM     14  C   UNL     1      -0.759   1.885   0.487  0.00  0.00    +0.236 C 
ATOM     15  C   UNL     1      -2.227   1.508   0.081  0.00  0.00    +0.186 C 
ATOM     16  C   UNL     1      -2.228   0.783  -1.251  0.00  0.00    +0.008 C 
ATOM     17  C   UNL     1      -2.730  -0.425  -1.550  0.00  0.00    -0.001 C 
ATOM     18  C   UNL     1      -3.503  -1.270  -0.664  0.00  0.00    +0.008 C 
ATOM     19  C   UNL     1      -3.697  -2.595  -0.805  0.00  0.00    +0.013 C 
ATOM     20  C   UNL     1      -4.553  -3.419   0.101  0.00  0.00    +0.049 C 
ATOM     21  C   UNL     1      -2.973  -3.365  -1.847  0.00  0.00    +0.264 C 
ATOM     22  O   UNL     1      -3.485  -3.653  -2.919  0.00  0.00    -0.268 OA
ATOM     23  N   UNL     1      -1.730  -3.697  -1.398  0.00  0.00    -0.173 NA
ATOM     24  C   UNL     1      -0.726  -3.789  -2.207  0.00  0.00    +0.107 C 
ATOM     25  C   UNL     1      -0.666  -3.597  -3.676  0.00  0.00    +0.078 C 
ATOM     26  C   UNL     1       0.518  -3.309  -4.231  0.00  0.00    +0.161 C 
ATOM     27  C   UNL     1       0.616  -4.104  -1.556  0.00  0.00    +0.209 C 
ATOM     28  O   UNL     1       0.672  -4.835  -0.578  0.00  0.00    -0.285 OA
ENDROOT
BRANCH   7  29
ATOM     29  O   UNL     1       2.658  -0.928   2.500  0.00  0.00    -0.377 OA
ATOM     30  C   UNL     1       3.635   0.104   2.408  0.00  0.00    +0.194 C 
ENDBRANCH   7  29
BRANCH   8  31
ATOM     31  O   UNL     1      -0.907  -1.007   1.458  0.00  0.00    -0.389 OA
ATOM     32  H   UNL     1      -0.929  -1.933   1.150  0.00  0.00    +0.210 HD
ENDBRANCH   8  31
BRANCH  26  33
ATOM     33  O   UNL     1       0.648  -3.094  -5.588  0.00  0.00    -0.503 OA
ATOM     34  H   UNL     1      -0.225  -3.160  -6.011  0.00  0.00    +0.292 HD
ENDBRANCH  26  33
BRANCH   1  36
ATOM     35  C   UNL     1       3.614  -3.456  -4.787  0.00  0.00    +0.277 C 
ATOM     36  O   UNL     1       2.793  -2.516  -4.092  0.00  0.00    -0.491 OA
ENDBRANCH   1  36
BRANCH  15  37
ATOM     37  O   UNL     1      -3.018   2.700  -0.086  0.00  0.00    -0.372 OA
ATOM     38  C   UNL     1      -4.400   2.484   0.166  0.00  0.00    +0.195 C 
ENDBRANCH  15  37
BRANCH  14  39
ATOM     39  O   UNL     1      -0.283   2.901  -0.439  0.00  0.00    -0.440 OA
BRANCH  39  40
ATOM     40  C   UNL     1       1.045   3.012  -0.615  0.00  0.00    +0.398 C 
ATOM     41  N   UNL     1       1.299   3.982  -1.522  0.00  0.00    -0.295 N 
ATOM     42  O   UNL     1       1.921   2.366  -0.067  0.00  0.00    -0.227 OA
ATOM     43  H   UNL     1       0.533   4.492  -1.932  0.00  0.00    +0.148 HD
ATOM     44  H   UNL     1       2.255   4.194  -1.762  0.00  0.00    +0.148 HD
ENDBRANCH  39  40
ENDBRANCH  14  39
TORSDOF 7
