REMARK  Name = 
REMARK  14 active torsions:
REMARK  status: ('A' for Active; 'I' for Inactive)
REMARK    1  A    between atoms: C_1  and  O_2
REMARK    2  A    between atoms: O_2  and  C_3
REMARK    3  A    between atoms: C_6  and  C_7
REMARK    4  A    between atoms: C_9  and  O_10
REMARK    5  A    between atoms: O_10  and  C_11
REMARK    6  A    between atoms: C_12  and  O_13
REMARK    7  A    between atoms: C_14  and  C_15
REMARK    8  A    between atoms: C_17  and  C_18
REMARK    9  A    between atoms: C_19  and  O_20
REMARK   10  A    between atoms: O_20  and  C_21
REMARK   11  A    between atoms: C_24  and  O_25
REMARK   12  A    between atoms: O_25  and  C_26
REMARK   13  A    between atoms: C_30  and  C_31
REMARK   14  A    between atoms: C_37  and  O_38
REMARK                            x       y       z     vdW  Elec       q    Type
REMARK                         _______ _______ _______ _____ _____    ______ ____
ROOT
ATOM      1  C   UNL     1      -3.027  -2.344  -1.775  0.00  0.00    +0.168 C 
ATOM      2  C   UNL     1      -2.105  -2.696  -0.862  0.00  0.00    +0.047 C 
ATOM      3  C   UNL     1      -1.041  -3.743  -1.078  0.00  0.00    +0.046 C 
ATOM      4  C   UNL     1       0.391  -3.185  -1.315  0.00  0.00    -0.007 C 
ATOM      5  C   UNL     1       1.359  -4.372  -1.330  0.00  0.00    +0.008 C 
ATOM      6  C   UNL     1       0.446  -2.319  -2.603  0.00  0.00    +0.037 C 
ATOM      7  C   UNL     1       1.787  -1.702  -3.082  0.00  0.00    +0.147 C 
ATOM      8  C   UNL     1       2.473  -0.653  -2.160  0.00  0.00    +0.150 C 
ATOM      9  C   UNL     1       2.006   0.828  -2.252  0.00  0.00    +0.040 C 
ATOM     10  C   UNL     1       2.409   1.447  -3.597  0.00  0.00    +0.014 C 
ATOM     11  C   UNL     1       0.528   1.081  -2.040  0.00  0.00    -0.019 C 
ATOM     12  C   UNL     1      -0.057   1.877  -1.118  0.00  0.00    -0.033 C 
ATOM     13  C   UNL     1      -1.557   2.038  -1.123  0.00  0.00    +0.042 C 
ATOM     14  C   UNL     1       0.650   2.719  -0.045  0.00  0.00    +0.236 C 
ATOM     15  C   UNL     1       1.262   1.854   1.113  0.00  0.00    +0.186 C 
ATOM     16  C   UNL     1       0.787   2.342   2.468  0.00  0.00    +0.008 C 
ATOM     17  C   UNL     1      -0.201   1.842   3.230  0.00  0.00    -0.001 C 
ATOM     18  C   UNL     1      -1.095   0.773   2.845  0.00  0.00    +0.008 C 
ATOM     19  C   UNL     1      -1.967   0.121   3.638  0.00  0.00    +0.013 C 
ATOM     20  C   UNL     1      -2.143   0.265   5.117  0.00  0.00    +0.049 C 
ATOM     21  C   UNL     1      -2.841  -0.928   3.017  0.00  0.00    +0.264 C 
ATOM     22  O   UNL     1      -3.061  -2.002   3.561  0.00  0.00    -0.268 OA
ATOM     23  N   UNL     1      -3.510  -0.483   1.906  0.00  0.00    -0.173 NA
ATOM     24  C   UNL     1      -3.254  -1.034   0.755  0.00  0.00    +0.107 C 
ATOM     25  C   UNL     1      -4.101  -0.633  -0.390  0.00  0.00    +0.078 C 
ATOM     26  C   UNL     1      -3.974  -1.261  -1.562  0.00  0.00    +0.161 C 
ATOM     27  C   UNL     1      -2.124  -2.023   0.467  0.00  0.00    +0.209 C 
ATOM     28  O   UNL     1      -1.232  -2.198   1.283  0.00  0.00    -0.285 OA
ENDROOT
BRANCH   7  29
ATOM     29  O   UNL     1       2.762  -2.746  -3.290  0.00  0.00    -0.377 OA
ATOM     30  C   UNL     1       2.639  -3.398  -4.548  0.00  0.00    +0.194 C 
ENDBRANCH   7  29
BRANCH   8  31
ATOM     31  O   UNL     1       2.467  -1.073  -0.795  0.00  0.00    -0.389 OA
ATOM     32  H   UNL     1       2.912  -1.940  -0.785  0.00  0.00    +0.210 HD
ENDBRANCH   8  31
BRANCH  26  33
ATOM     33  O   UNL     1      -4.740  -0.918  -2.657  0.00  0.00    -0.503 OA
ATOM     34  H   UNL     1      -5.324  -0.176  -2.425  0.00  0.00    +0.292 HD
ENDBRANCH  26  33
BRANCH   1  36
ATOM     35  C   UNL     1      -4.030  -3.907  -3.171  0.00  0.00    +0.277 C 
ATOM     36  O   UNL     1      -3.018  -2.908  -3.040  0.00  0.00    -0.491 OA
ENDBRANCH   1  36
BRANCH  15  37
ATOM     37  O   UNL     1       2.701   1.916   1.092  0.00  0.00    -0.372 OA
ATOM     38  C   UNL     1       3.315   0.881   1.851  0.00  0.00    +0.195 C 
ENDBRANCH  15  37
BRANCH  14  39
ATOM     39  O   UNL     1       1.623   3.549  -0.713  0.00  0.00    -0.440 OA
BRANCH  39  40
ATOM     40  C   UNL     1       1.970   4.676  -0.061  0.00  0.00    +0.398 C 
ATOM     41  N   UNL     1       2.955   5.308  -0.738  0.00  0.00    -0.295 N 
ATOM     42  O   UNL     1       1.486   5.108   0.972  0.00  0.00    -0.227 OA
ATOM     43  H   UNL     1       3.331   4.884  -1.571  0.00  0.00    +0.148 HD
ATOM     44  H   UNL     1       3.335   6.164  -0.367  0.00  0.00    +0.148 HD
ENDBRANCH  39  40
ENDBRANCH  14  39
TORSDOF 7
