REMARK  Name = 
REMARK  15 active torsions:
REMARK  status: ('A' for Active; 'I' for Inactive)
REMARK    1  A    between atoms: C_1  and  O_2
REMARK    2  A    between atoms: O_2  and  C_3
REMARK    3  A    between atoms: C_6  and  C_7
REMARK    4  A    between atoms: C_9  and  O_10
REMARK    5  A    between atoms: O_10  and  C_11
REMARK    6  A    between atoms: C_12  and  O_13
REMARK    7  A    between atoms: C_14  and  C_15
REMARK    8  A    between atoms: C_17  and  C_18
REMARK    9  A    between atoms: C_19  and  O_20
REMARK   10  A    between atoms: O_20  and  C_21
REMARK   11  A    between atoms: C_21  and  O_23
REMARK   12  A    between atoms: C_24  and  O_25
REMARK   13  A    between atoms: O_25  and  C_26
REMARK   14  A    between atoms: C_30  and  C_31
REMARK   15  A    between atoms: C_32  and  O_33
REMARK                            x       y       z     vdW  Elec       q    Type
REMARK                         _______ _______ _______ _____ _____    ______ ____
ROOT
ATOM      1  C   UNL     1       1.087  -1.245  -3.064  0.00  0.00    +0.173 C 
ATOM      2  C   UNL     1       0.573  -2.248  -2.328  0.00  0.00    +0.047 C 
ATOM      3  C   UNL     1       1.415  -3.333  -1.691  0.00  0.00    +0.046 C 
ATOM      4  C   UNL     1       1.528  -3.346  -0.142  0.00  0.00    -0.007 C 
ATOM      5  C   UNL     1       2.435  -4.527   0.234  0.00  0.00    +0.008 C 
ATOM      6  C   UNL     1       2.033  -1.990   0.402  0.00  0.00    +0.037 C 
ATOM      7  C   UNL     1       2.205  -1.800   1.927  0.00  0.00    +0.147 C 
ATOM      8  C   UNL     1       0.935  -2.008   2.798  0.00  0.00    +0.150 C 
ATOM      9  C   UNL     1      -0.254  -1.069   2.459  0.00  0.00    +0.040 C 
ATOM     10  C   UNL     1      -1.494  -1.450   3.281  0.00  0.00    +0.014 C 
ATOM     11  C   UNL     1       0.100   0.374   2.763  0.00  0.00    -0.019 C 
ATOM     12  C   UNL     1      -0.233   1.493   2.084  0.00  0.00    -0.033 C 
ATOM     13  C   UNL     1       0.226   2.836   2.612  0.00  0.00    +0.042 C 
ATOM     14  C   UNL     1      -1.080   1.538   0.812  0.00  0.00    +0.236 C 
ATOM     15  C   UNL     1      -2.622   1.710   1.065  0.00  0.00    +0.186 C 
ATOM     16  C   UNL     1      -3.328   2.377  -0.089  0.00  0.00    +0.008 C 
ATOM     17  C   UNL     1      -3.824   1.853  -1.218  0.00  0.00    -0.001 C 
ATOM     18  C   UNL     1      -3.766   0.472  -1.641  0.00  0.00    +0.008 C 
ATOM     19  C   UNL     1      -4.219   0.035  -2.831  0.00  0.00    +0.011 C 
ATOM     20  C   UNL     1      -4.862   0.844  -3.918  0.00  0.00    +0.049 C 
ATOM     21  C   UNL     1      -4.064  -1.402  -3.142  0.00  0.00    +0.216 C 
ATOM     22  N   UNL     1      -3.060  -2.179  -3.312  0.00  0.00    -0.209 NA
ATOM     23  C   UNL     1      -1.779  -1.697  -3.166  0.00  0.00    +0.118 C 
ATOM     24  C   UNL     1      -1.248  -0.716  -3.901  0.00  0.00    +0.086 C 
ATOM     25  C   UNL     1       0.146  -0.278  -3.723  0.00  0.00    +0.223 C 
ATOM     26  O   UNL     1       0.468   0.832  -4.140  0.00  0.00    -0.284 OA
ATOM     27  C   UNL     1      -0.900  -2.393  -2.170  0.00  0.00    +0.211 C 
ATOM     28  O   UNL     1      -1.381  -3.081  -1.275  0.00  0.00    -0.285 OA
ENDROOT
BRANCH   7  29
ATOM     29  O   UNL     1       3.239  -2.695   2.377  0.00  0.00    -0.377 OA
ATOM     30  C   UNL     1       4.026  -2.165   3.437  0.00  0.00    +0.194 C 
ENDBRANCH   7  29
BRANCH   8  31
ATOM     31  O   UNL     1       0.521  -3.376   2.756  0.00  0.00    -0.389 OA
ATOM     32  H   UNL     1       1.336  -3.900   2.877  0.00  0.00    +0.210 HD
ENDBRANCH   8  31
BRANCH  21  33
ATOM     33  O   UNL     1      -5.280  -1.952  -3.292  0.00  0.00    -0.492 OA
ATOM     34  H   UNL     1      -5.146  -2.901  -3.460  0.00  0.00    +0.294 HD
ENDBRANCH  21  33
BRANCH   1  36
ATOM     35  C   UNL     1       3.028  -0.020  -3.824  0.00  0.00    +0.277 C 
ATOM     36  O   UNL     1       2.467  -1.164  -3.194  0.00  0.00    -0.491 OA
ENDBRANCH   1  36
BRANCH  15  37
ATOM     37  O   UNL     1      -2.870   2.535   2.219  0.00  0.00    -0.372 OA
ATOM     38  C   UNL     1      -4.085   2.211   2.883  0.00  0.00    +0.195 C 
ENDBRANCH  15  37
BRANCH  14  39
ATOM     39  O   UNL     1      -0.585   2.600  -0.041  0.00  0.00    -0.439 OA
BRANCH  39  40
ATOM     40  C   UNL     1       0.179   2.203  -1.067  0.00  0.00    +0.381 C 
ATOM     41  N   UNL     1       1.157   1.382  -1.009  0.00  0.00    -0.233 NA
ATOM     42  H   UNL     1       1.307   1.142  -0.025  0.00  0.00    +0.193 HD
BRANCH  40  43
ATOM     43  O   UNL     1      -0.190   2.746  -2.225  0.00  0.00    -0.466 OA
ATOM     44  H   UNL     1       0.351   2.337  -2.929  0.00  0.00    +0.297 HD
ENDBRANCH  40  43
ENDBRANCH  39  40
ENDBRANCH  14  39
TORSDOF 8
