REMARK  Name = 
REMARK  15 active torsions:
REMARK  status: ('A' for Active; 'I' for Inactive)
REMARK    1  A    between atoms: C_1  and  O_2
REMARK    2  A    between atoms: O_2  and  C_3
REMARK    3  A    between atoms: C_6  and  C_7
REMARK    4  A    between atoms: C_9  and  O_10
REMARK    5  A    between atoms: O_10  and  C_11
REMARK    6  A    between atoms: C_12  and  O_13
REMARK    7  A    between atoms: C_14  and  C_15
REMARK    8  A    between atoms: C_17  and  C_18
REMARK    9  A    between atoms: C_19  and  O_20
REMARK   10  A    between atoms: O_20  and  C_21
REMARK   11  A    between atoms: C_24  and  O_25
REMARK   12  A    between atoms: O_25  and  C_26
REMARK   13  A    between atoms: C_30  and  C_31
REMARK   14  A    between atoms: C_32  and  O_33
REMARK   15  A    between atoms: C_37  and  O_38
REMARK                            x       y       z     vdW  Elec       q    Type
REMARK                         _______ _______ _______ _____ _____    ______ ____
ROOT
ATOM      1  C   UNL     1      -2.817   2.188   1.287  0.00  0.00    +0.172 C 
ATOM      2  C   UNL     1      -2.316   1.791  -0.030  0.00  0.00    +0.065 C 
ATOM      3  C   UNL     1      -1.908   2.694  -0.955  0.00  0.00    -0.008 C 
ATOM      4  C   UNL     1      -1.415   2.445  -2.376  0.00  0.00    +0.012 C 
ATOM      5  C   UNL     1      -1.463   3.749  -3.184  0.00  0.00    +0.012 C 
ATOM      6  C   UNL     1       0.009   1.850  -2.383  0.00  0.00    +0.041 C 
ATOM      7  C   UNL     1       0.512   1.285  -3.737  0.00  0.00    +0.147 C 
ATOM      8  C   UNL     1       1.494   0.088  -3.508  0.00  0.00    +0.150 C 
ATOM      9  C   UNL     1       0.851  -1.225  -2.968  0.00  0.00    +0.040 C 
ATOM     10  C   UNL     1       0.004  -1.991  -3.991  0.00  0.00    +0.014 C 
ATOM     11  C   UNL     1       1.921  -2.173  -2.432  0.00  0.00    -0.019 C 
ATOM     12  C   UNL     1       2.456  -2.199  -1.191  0.00  0.00    -0.033 C 
ATOM     13  C   UNL     1       3.501  -3.235  -0.858  0.00  0.00    +0.042 C 
ATOM     14  C   UNL     1       2.141  -1.179  -0.096  0.00  0.00    +0.236 C 
ATOM     15  C   UNL     1       1.674  -1.790   1.278  0.00  0.00    +0.186 C 
ATOM     16  C   UNL     1       1.033  -0.722   2.136  0.00  0.00    +0.008 C 
ATOM     17  C   UNL     1       0.017  -0.792   3.008  0.00  0.00    -0.001 C 
ATOM     18  C   UNL     1      -0.705  -1.944   3.482  0.00  0.00    +0.008 C 
ATOM     19  C   UNL     1      -1.509  -2.816   2.852  0.00  0.00    +0.011 C 
ATOM     20  C   UNL     1      -2.168  -3.934   3.622  0.00  0.00    +0.049 C 
ATOM     21  C   UNL     1      -1.859  -2.799   1.412  0.00  0.00    +0.216 C 
ATOM     22  N   UNL     1      -2.321  -1.971   0.560  0.00  0.00    -0.209 NA
ATOM     23  C   UNL     1      -2.573  -0.648   0.828  0.00  0.00    +0.118 C 
ATOM     24  C   UNL     1      -3.121  -0.139   1.943  0.00  0.00    +0.081 C 
ATOM     25  C   UNL     1      -3.262   1.274   2.164  0.00  0.00    +0.161 C 
ATOM     26  C   UNL     1      -2.297   0.304  -0.324  0.00  0.00    +0.215 C 
ATOM     27  O   UNL     1      -2.083  -0.151  -1.446  0.00  0.00    -0.285 OA
ENDROOT
BRANCH   7  28
ATOM     28  O   UNL     1      -0.599   0.965  -4.577  0.00  0.00    -0.377 OA
ATOM     29  C   UNL     1      -0.297   0.906  -5.963  0.00  0.00    +0.194 C 
ENDBRANCH   7  28
BRANCH   8  30
ATOM     30  O   UNL     1       2.232  -0.192  -4.711  0.00  0.00    -0.389 OA
ATOM     31  H   UNL     1       2.762   0.598  -4.909  0.00  0.00    +0.210 HD
ENDBRANCH   8  30
BRANCH  25  32
ATOM     32  O   UNL     1      -3.828   1.613   3.371  0.00  0.00    -0.503 OA
ATOM     33  H   UNL     1      -3.967   2.579   3.342  0.00  0.00    +0.292 HD
ENDBRANCH  25  32
BRANCH   1  35
ATOM     34  C   UNL     1      -1.719   4.002   2.217  0.00  0.00    +0.277 C 
ATOM     35  O   UNL     1      -2.912   3.542   1.571  0.00  0.00    -0.491 OA
ENDBRANCH   1  35
BRANCH  15  36
ATOM     36  O   UNL     1       2.825  -2.292   1.982  0.00  0.00    -0.372 OA
ATOM     37  C   UNL     1       2.529  -3.388   2.836  0.00  0.00    +0.195 C 
ENDBRANCH  15  36
BRANCH  21  38
ATOM     38  O   UNL     1      -1.621  -4.030   0.914  0.00  0.00    -0.492 OA
ATOM     39  H   UNL     1      -1.846  -3.986  -0.033  0.00  0.00    +0.294 HD
ENDBRANCH  21  38
BRANCH  14  40
ATOM     40  O   UNL     1       3.370  -0.424   0.079  0.00  0.00    -0.440 OA
BRANCH  40  41
ATOM     41  C   UNL     1       3.293   0.916   0.104  0.00  0.00    +0.398 C 
ATOM     42  N   UNL     1       4.528   1.436   0.275  0.00  0.00    -0.295 N 
ATOM     43  O   UNL     1       2.290   1.601  -0.001  0.00  0.00    -0.227 OA
ATOM     44  H   UNL     1       4.648   2.435   0.321  0.00  0.00    +0.148 HD
ATOM     45  H   UNL     1       5.316   0.812   0.367  0.00  0.00    +0.148 HD
ENDBRANCH  40  41
ENDBRANCH  14  40
TORSDOF 8
