REMARK  Name = 
REMARK  13 active torsions:
REMARK  status: ('A' for Active; 'I' for Inactive)
REMARK    1  A    between atoms: C_1  and  O_2
REMARK    2  A    between atoms: O_2  and  C_3
REMARK    3  A    between atoms: C_6  and  C_7
REMARK    4  A    between atoms: C_9  and  O_10
REMARK    5  A    between atoms: O_10  and  C_11
REMARK    6  A    between atoms: C_12  and  O_13
REMARK    7  A    between atoms: C_14  and  C_15
REMARK    8  A    between atoms: C_17  and  C_18
REMARK    9  A    between atoms: C_19  and  O_20
REMARK   10  A    between atoms: O_20  and  C_21
REMARK   11  A    between atoms: C_24  and  O_25
REMARK   12  A    between atoms: O_25  and  C_26
REMARK   13  A    between atoms: C_30  and  C_31
REMARK                            x       y       z     vdW  Elec       q    Type
REMARK                         _______ _______ _______ _____ _____    ______ ____
ROOT
ATOM      1  C   UNL     1      -2.250  -1.706   3.186  0.00  0.00    +0.173 C 
ATOM      2  C   UNL     1      -2.138  -1.119   1.982  0.00  0.00    +0.047 C 
ATOM      3  C   UNL     1      -3.056  -1.440   0.820  0.00  0.00    +0.046 C 
ATOM      4  C   UNL     1      -2.558  -2.606  -0.064  0.00  0.00    -0.007 C 
ATOM      5  C   UNL     1      -3.758  -3.409  -0.586  0.00  0.00    +0.008 C 
ATOM      6  C   UNL     1      -1.570  -2.213  -1.200  0.00  0.00    +0.037 C 
ATOM      7  C   UNL     1      -1.999  -1.109  -2.200  0.00  0.00    +0.147 C 
ATOM      8  C   UNL     1      -1.004  -0.937  -3.401  0.00  0.00    +0.150 C 
ATOM      9  C   UNL     1      -0.267   0.431  -3.519  0.00  0.00    +0.040 C 
ATOM     10  C   UNL     1      -1.234   1.594  -3.767  0.00  0.00    +0.014 C 
ATOM     11  C   UNL     1       0.631   0.779  -2.351  0.00  0.00    -0.019 C 
ATOM     12  C   UNL     1       1.979   0.705  -2.280  0.00  0.00    -0.033 C 
ATOM     13  C   UNL     1       2.856   0.156  -3.376  0.00  0.00    +0.042 C 
ATOM     14  C   UNL     1       2.701   1.200  -1.015  0.00  0.00    +0.236 C 
ATOM     15  C   UNL     1       2.731   0.125   0.118  0.00  0.00    +0.186 C 
ATOM     16  C   UNL     1       3.389   0.500   1.434  0.00  0.00    +0.008 C 
ATOM     17  C   UNL     1       3.494   1.651   2.117  0.00  0.00    -0.001 C 
ATOM     18  C   UNL     1       2.954   2.954   1.819  0.00  0.00    +0.008 C 
ATOM     19  C   UNL     1       1.675   3.358   1.688  0.00  0.00    +0.012 C 
ATOM     20  C   UNL     1       1.357   4.783   1.316  0.00  0.00    +0.049 C 
ATOM     21  C   UNL     1       0.460   2.489   1.804  0.00  0.00    +0.244 C 
ATOM     22  O   UNL     1      -0.553   2.761   1.168  0.00  0.00    -0.270 OA
ATOM     23  N   UNL     1       0.541   1.506   2.765  0.00  0.00    -0.279 N 
ATOM     24  C   UNL     1      -0.316   0.431   2.900  0.00  0.00    +0.085 C 
ATOM     25  C   UNL     1      -0.383  -0.222   4.063  0.00  0.00    +0.081 C 
ATOM     26  C   UNL     1      -1.281  -1.368   4.275  0.00  0.00    +0.222 C 
ATOM     27  O   UNL     1      -1.216  -1.979   5.336  0.00  0.00    -0.284 OA
ATOM     28  C   UNL     1      -1.081  -0.107   1.727  0.00  0.00    +0.207 C 
ATOM     29  O   UNL     1      -0.798   0.193   0.573  0.00  0.00    -0.286 OA
ATOM     30  H   UNL     1       1.270   1.621   3.458  0.00  0.00    +0.155 HD
ENDROOT
BRANCH   7  31
ATOM     31  O   UNL     1      -3.286  -1.504  -2.720  0.00  0.00    -0.377 OA
ATOM     32  C   UNL     1      -4.099  -0.415  -3.131  0.00  0.00    +0.194 C 
ENDBRANCH   7  31
BRANCH   8  33
ATOM     33  O   UNL     1      -0.033  -1.999  -3.440  0.00  0.00    -0.389 OA
ATOM     34  H   UNL     1       0.503  -1.872  -4.240  0.00  0.00    +0.210 HD
ENDBRANCH   8  33
BRANCH   1  36
ATOM     35  C   UNL     1      -3.875  -2.654   4.638  0.00  0.00    +0.277 C 
ATOM     36  O   UNL     1      -3.220  -2.684   3.373  0.00  0.00    -0.491 OA
ENDBRANCH   1  36
BRANCH  15  37
ATOM     37  O   UNL     1       3.474  -1.035  -0.330  0.00  0.00    -0.372 OA
ATOM     38  C   UNL     1       2.646  -2.179  -0.503  0.00  0.00    +0.195 C 
ENDBRANCH  15  37
BRANCH  14  39
ATOM     39  O   UNL     1       4.057   1.567  -1.360  0.00  0.00    -0.440 OA
BRANCH  39  40
ATOM     40  C   UNL     1       4.340   2.879  -1.450  0.00  0.00    +0.398 C 
ATOM     41  N   UNL     1       5.641   3.034  -1.780  0.00  0.00    -0.295 N 
ATOM     42  O   UNL     1       3.585   3.819  -1.271  0.00  0.00    -0.227 OA
ATOM     43  H   UNL     1       6.218   2.219  -1.917  0.00  0.00    +0.148 HD
ATOM     44  H   UNL     1       6.013   3.963  -1.899  0.00  0.00    +0.148 HD
ENDBRANCH  39  40
ENDBRANCH  14  39
TORSDOF 6
