REMARK  Name = 
REMARK  3 active torsions:
REMARK  status: ('A' for Active; 'I' for Inactive)
REMARK    1  A    between atoms: C_3  and  N_15
REMARK    2  A    between atoms: C_21  and  O_22
REMARK    3  A    between atoms: C_21  and  N_23
REMARK                            x       y       z     vdW  Elec       q    Type
REMARK                         _______ _______ _______ _____ _____    ______ ____
ROOT
ATOM      1  C   UNL     1      -1.179   2.656  -2.363  0.00  0.00    +0.224 A 
ATOM      2  N   UNL     1      -1.762   1.731  -1.591  0.00  0.00    -0.220 NA
ATOM      3  C   UNL     1      -0.994   0.794  -0.980  0.00  0.00    +0.133 A 
ATOM      4  C   UNL     1       0.417   0.881  -1.130  0.00  0.00    +0.051 A 
ATOM      5  C   UNL     1       1.546   0.154  -0.550  0.00  0.00    -0.025 A 
ATOM      6  C   UNL     1       2.755   0.580  -1.092  0.00  0.00    -0.004 A 
ATOM      7  S   UNL     1       2.550   1.893  -2.167  0.00  0.00    -0.073 S 
ATOM      8  C   UNL     1       0.865   1.885  -1.974  0.00  0.00    +0.114 A 
ATOM      9  N   UNL     1       0.119   2.793  -2.623  0.00  0.00    -0.228 NA
ATOM     10  C   UNL     1       4.152   0.080  -0.834  0.00  0.00    +0.043 C 
ATOM     11  C   UNL     1       4.197  -1.416  -0.531  0.00  0.00    +0.005 C 
ATOM     12  C   UNL     1       3.796  -1.771   0.900  0.00  0.00    +0.001 C 
ATOM     13  C   UNL     1       2.589  -1.020   1.466  0.00  0.00    +0.005 C 
ATOM     14  C   UNL     1       1.407  -0.919   0.503  0.00  0.00    +0.037 C 
ENDROOT
BRANCH   3  15
ATOM     15  N   UNL     1      -1.629  -0.210  -0.249  0.00  0.00    -0.310 N 
ATOM     16  C   UNL     1      -1.667  -1.512  -0.909  0.00  0.00    +0.107 C 
ATOM     17  C   UNL     1      -1.907  -2.616   0.124  0.00  0.00    +0.023 C 
ATOM     18  C   UNL     1      -2.462  -2.093   1.448  0.00  0.00    +0.039 C 
ATOM     19  C   UNL     1      -3.434  -0.962   1.214  0.00  0.00    +0.004 C 
ATOM     20  C   UNL     1      -2.863   0.199   0.428  0.00  0.00    +0.142 C 
ATOM     21  C   UNL     1      -4.704  -0.995   1.651  0.00  0.00    +0.175 C 
BRANCH  21  22
ATOM     22  N   UNL     1      -5.638  -0.031   1.491  0.00  0.00    -0.330 N 
ATOM     23  H   UNL     1      -5.394   0.828   1.014  0.00  0.00    +0.145 HD
ATOM     24  H   UNL     1      -6.446  -0.003   2.099  0.00  0.00    +0.145 HD
ENDBRANCH  21  22
BRANCH  21  25
ATOM     25  O   UNL     1      -5.155  -2.090   2.335  0.00  0.00    -0.495 OA
ATOM     26  H   UNL     1      -6.119  -2.067   2.247  0.00  0.00    +0.293 HD
ENDBRANCH  21  25
ENDBRANCH   3  15
TORSDOF 3
