REMARK  Name = 
REMARK  2 active torsions:
REMARK  status: ('A' for Active; 'I' for Inactive)
REMARK    1  A    between atoms: C_3  and  N_15
REMARK    2  A    between atoms: C_19  and  C_21
REMARK                            x       y       z     vdW  Elec       q    Type
REMARK                         _______ _______ _______ _____ _____    ______ ____
ROOT
ATOM      1  C   UNL     1       2.075  -2.777  -3.144  0.00  0.00    +0.224 A 
ATOM      2  N   UNL     1       1.578  -1.536  -3.096  0.00  0.00    -0.220 NA
ATOM      3  C   UNL     1       0.846  -1.149  -2.021  0.00  0.00    +0.133 A 
ATOM      4  C   UNL     1       0.721  -2.057  -0.935  0.00  0.00    +0.051 A 
ATOM      5  C   UNL     1       0.174  -1.973   0.413  0.00  0.00    -0.025 A 
ATOM      6  C   UNL     1       0.212  -3.200   1.060  0.00  0.00    -0.004 A 
ATOM      7  S   UNL     1       0.999  -4.394   0.136  0.00  0.00    -0.073 S 
ATOM      8  C   UNL     1       1.270  -3.316  -1.149  0.00  0.00    +0.114 A 
ATOM      9  N   UNL     1       1.946  -3.734  -2.230  0.00  0.00    -0.228 NA
ATOM     10  C   UNL     1      -0.326  -3.531   2.420  0.00  0.00    +0.043 C 
ATOM     11  C   UNL     1      -1.815  -3.199   2.542  0.00  0.00    +0.005 C 
ATOM     12  C   UNL     1      -2.121  -1.705   2.685  0.00  0.00    +0.001 C 
ATOM     13  C   UNL     1      -1.840  -0.853   1.443  0.00  0.00    +0.005 C 
ATOM     14  C   UNL     1      -0.356  -0.743   1.092  0.00  0.00    +0.037 C 
ENDROOT
BRANCH   3  15
ATOM     15  N   UNL     1       0.239   0.106  -2.070  0.00  0.00    -0.314 N 
ATOM     16  C   UNL     1      -1.227   0.101  -2.123  0.00  0.00    +0.106 C 
ATOM     17  C   UNL     1      -1.727   0.889  -3.332  0.00  0.00    +0.020 C 
ATOM     18  C   UNL     1      -1.219   2.334  -3.316  0.00  0.00    +0.016 C 
ATOM     19  C   UNL     1       0.202   2.463  -2.738  0.00  0.00    +0.092 C 
ATOM     20  C   UNL     1       0.954   1.133  -2.837  0.00  0.00    +0.119 C 
BRANCH  19  21
ATOM     21  C   UNL     1       1.018   3.543  -3.426  0.00  0.00    +0.215 C 
ATOM     22  O   UNL     1       0.782   3.994  -4.540  0.00  0.00    -0.276 OA
ATOM     23  N   UNL     1       2.087   4.004  -2.712  0.00  0.00    -0.329 N 
ATOM     24  H   UNL     1       2.659   4.722  -3.137  0.00  0.00    +0.145 HD
ATOM     25  H   UNL     1       2.326   3.676  -1.787  0.00  0.00    +0.145 HD
ENDBRANCH  19  21
ENDBRANCH   3  15
TORSDOF 2
