REMARK  Name = 
REMARK  3 active torsions:
REMARK  status: ('A' for Active; 'I' for Inactive)
REMARK    1  A    between atoms: C_3  and  N_15
REMARK    2  A    between atoms: C_19  and  C_21
REMARK    3  A    between atoms: C_21  and  O_22
REMARK                            x       y       z     vdW  Elec       q    Type
REMARK                         _______ _______ _______ _____ _____    ______ ____
ROOT
ATOM      1  C   UNL     1       2.207  -1.100   2.583  0.00  0.00    +0.224 A 
ATOM      2  N   UNL     1       2.397  -0.831   1.286  0.00  0.00    -0.220 NA
ATOM      3  C   UNL     1       1.326  -0.545   0.505  0.00  0.00    +0.133 A 
ATOM      4  C   UNL     1       0.042  -0.494   1.109  0.00  0.00    +0.051 A 
ATOM      5  C   UNL     1      -1.292  -0.127   0.643  0.00  0.00    -0.025 A 
ATOM      6  C   UNL     1      -2.247  -0.321   1.631  0.00  0.00    -0.004 A 
ATOM      7  S   UNL     1      -1.560  -0.831   3.106  0.00  0.00    -0.073 S 
ATOM      8  C   UNL     1       0.008  -0.829   2.455  0.00  0.00    +0.114 A 
ATOM      9  N   UNL     1       1.051  -1.145   3.240  0.00  0.00    -0.228 NA
ATOM     10  C   UNL     1      -3.729  -0.116   1.532  0.00  0.00    +0.043 C 
ATOM     11  C   UNL     1      -4.092   1.325   1.178  0.00  0.00    +0.005 C 
ATOM     12  C   UNL     1      -3.829   1.689  -0.285  0.00  0.00    +0.001 C 
ATOM     13  C   UNL     1      -2.352   1.765  -0.676  0.00  0.00    +0.005 C 
ATOM     14  C   UNL     1      -1.637   0.411  -0.720  0.00  0.00    +0.037 C 
ENDROOT
BRANCH   3  15
ATOM     15  N   UNL     1       1.543  -0.356  -0.856  0.00  0.00    -0.314 N 
ATOM     16  C   UNL     1       1.189  -1.506  -1.684  0.00  0.00    +0.106 C 
ATOM     17  C   UNL     1       1.584  -1.245  -3.131  0.00  0.00    +0.020 C 
ATOM     18  C   UNL     1       3.092  -1.034  -3.273  0.00  0.00    +0.016 C 
ATOM     19  C   UNL     1       3.713  -0.247  -2.108  0.00  0.00    +0.091 C 
ATOM     20  C   UNL     1       2.685   0.481  -1.240  0.00  0.00    +0.119 C 
BRANCH  19  21
ATOM     21  C   UNL     1       4.626  -1.068  -1.234  0.00  0.00    +0.184 C 
ATOM     22  N   UNL     1       5.695  -0.596  -0.701  0.00  0.00    -0.271 NA
ATOM     23  H   UNL     1       6.183  -1.297  -0.146  0.00  0.00    +0.190 HD
BRANCH  21  24
ATOM     24  O   UNL     1       4.276  -2.340  -1.029  0.00  0.00    -0.496 OA
ATOM     25  H   UNL     1       4.827  -2.758  -0.353  0.00  0.00    +0.293 HD
ENDBRANCH  21  24
ENDBRANCH  19  21
ENDBRANCH   3  15
TORSDOF 3
