REMARK  Name = 
REMARK  3 active torsions:
REMARK  status: ('A' for Active; 'I' for Inactive)
REMARK    1  A    between atoms: C_3  and  N_15
REMARK    2  A    between atoms: C_19  and  C_21
REMARK    3  A    between atoms: C_21  and  O_22
REMARK                            x       y       z     vdW  Elec       q    Type
REMARK                         _______ _______ _______ _____ _____    ______ ____
ROOT
ATOM      1  C   UNL     1      -3.535   1.645   0.867  0.00  0.00    +0.224 A 
ATOM      2  N   UNL     1      -2.662   0.834   1.478  0.00  0.00    -0.220 NA
ATOM      3  C   UNL     1      -1.562   0.419   0.805  0.00  0.00    +0.133 A 
ATOM      4  C   UNL     1      -1.342   0.913  -0.506  0.00  0.00    +0.051 A 
ATOM      5  C   UNL     1      -0.253   0.797  -1.472  0.00  0.00    -0.025 A 
ATOM      6  C   UNL     1      -0.569   1.422  -2.670  0.00  0.00    -0.004 A 
ATOM      7  S   UNL     1      -2.076   2.216  -2.610  0.00  0.00    -0.073 S 
ATOM      8  C   UNL     1      -2.350   1.723  -1.009  0.00  0.00    +0.114 A 
ATOM      9  N   UNL     1      -3.468   2.116  -0.376  0.00  0.00    -0.228 NA
ATOM     10  C   UNL     1       0.252   1.479  -3.924  0.00  0.00    +0.043 C 
ATOM     11  C   UNL     1       1.609   2.144  -3.698  0.00  0.00    +0.005 C 
ATOM     12  C   UNL     1       2.611   1.268  -2.944  0.00  0.00    +0.001 C 
ATOM     13  C   UNL     1       2.275   1.024  -1.471  0.00  0.00    +0.005 C 
ATOM     14  C   UNL     1       1.067   0.113  -1.238  0.00  0.00    +0.037 C 
ENDROOT
BRANCH   3  15
ATOM     15  N   UNL     1      -0.729  -0.505   1.432  0.00  0.00    -0.314 N 
ATOM     16  C   UNL     1      -0.921  -1.880   0.962  0.00  0.00    +0.106 C 
ATOM     17  C   UNL     1      -0.379  -2.896   1.972  0.00  0.00    +0.020 C 
ATOM     18  C   UNL     1       0.920  -2.418   2.616  0.00  0.00    +0.016 C 
ATOM     19  C   UNL     1       0.762  -1.041   3.287  0.00  0.00    +0.091 C 
ATOM     20  C   UNL     1      -0.510  -0.299   2.861  0.00  0.00    +0.119 C 
BRANCH  19  21
ATOM     21  C   UNL     1       0.779  -1.149   4.783  0.00  0.00    +0.184 C 
ATOM     22  N   UNL     1       0.058  -1.905   5.527  0.00  0.00    -0.271 NA
ATOM     23  H   UNL     1      -0.575  -2.475   4.955  0.00  0.00    +0.190 HD
BRANCH  21  24
ATOM     24  O   UNL     1       1.645  -0.350   5.405  0.00  0.00    -0.496 OA
ATOM     25  H   UNL     1       1.549  -0.519   6.359  0.00  0.00    +0.293 HD
ENDBRANCH  21  24
ENDBRANCH  19  21
ENDBRANCH   3  15
TORSDOF 3
