REMARK  Name = 
REMARK  3 active torsions:
REMARK  status: ('A' for Active; 'I' for Inactive)
REMARK    1  A    between atoms: C_3  and  N_15
REMARK    2  A    between atoms: C_21  and  O_22
REMARK    3  A    between atoms: C_21  and  N_23
REMARK                            x       y       z     vdW  Elec       q    Type
REMARK                         _______ _______ _______ _____ _____    ______ ____
ROOT
ATOM      1  C   UNL     1       1.843   0.298   3.205  0.00  0.00    +0.224 A 
ATOM      2  N   UNL     1       1.161   1.099   2.376  0.00  0.00    -0.220 NA
ATOM      3  C   UNL     1       0.557   0.567   1.277  0.00  0.00    +0.133 A 
ATOM      4  C   UNL     1       0.528  -0.851   1.157  0.00  0.00    +0.051 A 
ATOM      5  C   UNL     1      -0.183  -1.798   0.292  0.00  0.00    -0.025 A 
ATOM      6  C   UNL     1       0.219  -3.109   0.533  0.00  0.00    -0.004 A 
ATOM      7  S   UNL     1       1.336  -3.212   1.822  0.00  0.00    -0.073 S 
ATOM      8  C   UNL     1       1.296  -1.538   2.087  0.00  0.00    +0.114 A 
ATOM      9  N   UNL     1       1.988  -1.020   3.113  0.00  0.00    -0.228 NA
ATOM     10  C   UNL     1      -0.185  -4.386  -0.158  0.00  0.00    +0.043 C 
ATOM     11  C   UNL     1      -1.633  -4.385  -0.637  0.00  0.00    +0.005 C 
ATOM     12  C   UNL     1      -1.863  -3.595  -1.927  0.00  0.00    +0.001 C 
ATOM     13  C   UNL     1      -1.201  -2.217  -2.001  0.00  0.00    +0.005 C 
ATOM     14  C   UNL     1      -1.268  -1.430  -0.693  0.00  0.00    +0.037 C 
ENDROOT
BRANCH   3  15
ATOM     15  N   UNL     1       0.013   1.443   0.342  0.00  0.00    -0.310 N 
ATOM     16  C   UNL     1       0.598   1.438  -1.004  0.00  0.00    +0.107 C 
ATOM     17  C   UNL     1       1.709   2.485  -1.131  0.00  0.00    +0.023 C 
ATOM     18  C   UNL     1       1.238   3.863  -0.655  0.00  0.00    +0.039 C 
ATOM     19  C   UNL     1       0.704   3.727   0.748  0.00  0.00    +0.004 C 
ATOM     20  C   UNL     1      -0.444   2.743   0.827  0.00  0.00    +0.142 C 
ATOM     21  C   UNL     1       1.219   4.352   1.821  0.00  0.00    +0.175 C 
BRANCH  21  22
ATOM     22  N   UNL     1       2.173   5.303   1.826  0.00  0.00    -0.330 N 
ATOM     23  H   UNL     1       2.550   5.690   0.975  0.00  0.00    +0.145 HD
ATOM     24  H   UNL     1       2.434   5.688   2.724  0.00  0.00    +0.145 HD
ENDBRANCH  21  22
BRANCH  21  25
ATOM     25  O   UNL     1       0.829   4.006   3.088  0.00  0.00    -0.495 OA
ATOM     26  H   UNL     1       0.750   3.029   3.072  0.00  0.00    +0.293 HD
ENDBRANCH  21  25
ENDBRANCH   3  15
TORSDOF 3
