REMARK  Name = 
REMARK  3 active torsions:
REMARK  status: ('A' for Active; 'I' for Inactive)
REMARK    1  A    between atoms: C_3  and  N_15
REMARK    2  A    between atoms: C_21  and  O_22
REMARK    3  A    between atoms: C_21  and  N_23
REMARK                            x       y       z     vdW  Elec       q    Type
REMARK                         _______ _______ _______ _____ _____    ______ ____
ROOT
ATOM      1  C   UNL     1      -4.520  -0.398  -1.527  0.00  0.00    +0.224 A 
ATOM      2  N   UNL     1      -3.429  -0.417  -2.302  0.00  0.00    -0.220 NA
ATOM      3  C   UNL     1      -2.205  -0.443  -1.720  0.00  0.00    +0.133 A 
ATOM      4  C   UNL     1      -2.129  -0.474  -0.304  0.00  0.00    +0.051 A 
ATOM      5  C   UNL     1      -1.022  -0.564   0.647  0.00  0.00    -0.025 A 
ATOM      6  C   UNL     1      -1.484  -0.551   1.957  0.00  0.00    -0.004 A 
ATOM      7  S   UNL     1      -3.187  -0.462   2.046  0.00  0.00    -0.073 S 
ATOM      8  C   UNL     1      -3.347  -0.442   0.358  0.00  0.00    +0.114 A 
ATOM      9  N   UNL     1      -4.569  -0.396  -0.196  0.00  0.00    -0.228 NA
ATOM     10  C   UNL     1      -0.689  -0.604   3.225  0.00  0.00    +0.043 C 
ATOM     11  C   UNL     1       0.129  -1.889   3.353  0.00  0.00    +0.005 C 
ATOM     12  C   UNL     1       1.038  -2.241   2.168  0.00  0.00    +0.001 C 
ATOM     13  C   UNL     1       1.450  -1.053   1.302  0.00  0.00    +0.005 C 
ATOM     14  C   UNL     1       0.423  -0.688   0.226  0.00  0.00    +0.037 C 
ENDROOT
BRANCH   3  15
ATOM     15  N   UNL     1      -1.081  -0.418  -2.541  0.00  0.00    -0.310 N 
ATOM     16  C   UNL     1      -1.117  -1.333  -3.679  0.00  0.00    +0.107 C 
ATOM     17  C   UNL     1       0.053  -1.072  -4.627  0.00  0.00    +0.023 C 
ATOM     18  C   UNL     1       1.264  -0.520  -3.882  0.00  0.00    +0.039 C 
ATOM     19  C   UNL     1       0.926   0.778  -3.170  0.00  0.00    +0.004 C 
ATOM     20  C   UNL     1      -0.528   0.911  -2.761  0.00  0.00    +0.142 C 
ATOM     21  C   UNL     1       1.867   1.711  -2.913  0.00  0.00    +0.175 C 
BRANCH  21  22
ATOM     22  N   UNL     1       3.181   1.597  -3.194  0.00  0.00    -0.330 N 
ATOM     23  H   UNL     1       3.579   0.753  -3.577  0.00  0.00    +0.145 HD
ATOM     24  H   UNL     1       3.781   2.362  -2.913  0.00  0.00    +0.145 HD
ENDBRANCH  21  22
BRANCH  21  25
ATOM     25  O   UNL     1       1.596   2.911  -2.314  0.00  0.00    -0.495 OA
ATOM     26  H   UNL     1       0.642   3.071  -2.307  0.00  0.00    +0.293 HD
ENDBRANCH  21  25
ENDBRANCH   3  15
TORSDOF 3
