REMARK  Name = 
REMARK  3 active torsions:
REMARK  status: ('A' for Active; 'I' for Inactive)
REMARK    1  A    between atoms: C_3  and  N_15
REMARK    2  A    between atoms: C_19  and  C_21
REMARK    3  A    between atoms: C_21  and  O_22
REMARK                            x       y       z     vdW  Elec       q    Type
REMARK                         _______ _______ _______ _____ _____    ______ ____
ROOT
ATOM      1  C   UNL     1      -0.030   2.828   1.791  0.00  0.00    +0.224 A 
ATOM      2  N   UNL     1      -0.836   1.772   1.623  0.00  0.00    -0.220 NA
ATOM      3  C   UNL     1      -0.420   0.742   0.848  0.00  0.00    +0.133 A 
ATOM      4  C   UNL     1       0.876   0.801   0.276  0.00  0.00    +0.051 A 
ATOM      5  C   UNL     1       1.678  -0.128  -0.517  0.00  0.00    -0.025 A 
ATOM      6  C   UNL     1       2.888   0.445  -0.897  0.00  0.00    -0.004 A 
ATOM      7  S   UNL     1       3.099   2.005  -0.228  0.00  0.00    -0.073 S 
ATOM      8  C   UNL     1       1.581   1.968   0.527  0.00  0.00    +0.114 A 
ATOM      9  N   UNL     1       1.180   3.014   1.270  0.00  0.00    -0.228 NA
ATOM     10  C   UNL     1       3.993  -0.121  -1.749  0.00  0.00    +0.043 C 
ATOM     11  C   UNL     1       3.479  -1.058  -2.838  0.00  0.00    +0.005 C 
ATOM     12  C   UNL     1       3.131  -2.461  -2.338  0.00  0.00    +0.001 C 
ATOM     13  C   UNL     1       2.385  -2.534  -1.006  0.00  0.00    +0.005 C 
ATOM     14  C   UNL     1       1.240  -1.530  -0.873  0.00  0.00    +0.037 C 
ENDROOT
BRANCH   3  15
ATOM     15  N   UNL     1      -1.310  -0.309   0.627  0.00  0.00    -0.314 N 
ATOM     16  C   UNL     1      -2.046  -0.177  -0.633  0.00  0.00    +0.106 C 
ATOM     17  C   UNL     1      -3.214  -1.159  -0.662  0.00  0.00    +0.020 C 
ATOM     18  C   UNL     1      -4.201  -0.877   0.474  0.00  0.00    +0.016 C 
ATOM     19  C   UNL     1      -3.508  -0.398   1.761  0.00  0.00    +0.091 C 
ATOM     20  C   UNL     1      -2.033  -0.796   1.807  0.00  0.00    +0.119 C 
BRANCH  19  21
ATOM     21  C   UNL     1      -4.203  -0.927   2.980  0.00  0.00    +0.184 C 
ATOM     22  N   UNL     1      -4.385  -2.154   3.310  0.00  0.00    -0.271 NA
ATOM     23  H   UNL     1      -3.986  -2.783   2.605  0.00  0.00    +0.190 HD
BRANCH  21  24
ATOM     24  O   UNL     1      -4.690  -0.007   3.811  0.00  0.00    -0.496 OA
ATOM     25  H   UNL     1      -5.109  -0.485   4.547  0.00  0.00    +0.293 HD
ENDBRANCH  21  24
ENDBRANCH  19  21
ENDBRANCH   3  15
TORSDOF 3
