REMARK  Name = 
REMARK  2 active torsions:
REMARK  status: ('A' for Active; 'I' for Inactive)
REMARK    1  A    between atoms: C_3  and  N_15
REMARK    2  A    between atoms: C_19  and  C_21
REMARK                            x       y       z     vdW  Elec       q    Type
REMARK                         _______ _______ _______ _____ _____    ______ ____
ROOT
ATOM      1  C   UNL     1      -1.276   1.339   3.472  0.00  0.00    +0.224 A 
ATOM      2  N   UNL     1      -1.279   1.726   2.191  0.00  0.00    -0.220 NA
ATOM      3  C   UNL     1      -0.920   0.841   1.228  0.00  0.00    +0.133 A 
ATOM      4  C   UNL     1      -0.619  -0.493   1.616  0.00  0.00    +0.051 A 
ATOM      5  C   UNL     1      -0.327  -1.729   0.892  0.00  0.00    -0.025 A 
ATOM      6  C   UNL     1      -0.039  -2.778   1.758  0.00  0.00    -0.004 A 
ATOM      7  S   UNL     1      -0.208  -2.316   3.397  0.00  0.00    -0.073 S 
ATOM      8  C   UNL     1      -0.639  -0.729   2.983  0.00  0.00    +0.114 A 
ATOM      9  N   UNL     1      -0.948   0.145   3.955  0.00  0.00    -0.228 NA
ATOM     10  C   UNL     1       0.376  -4.199   1.476  0.00  0.00    +0.043 C 
ATOM     11  C   UNL     1       0.720  -4.532   0.022  0.00  0.00    +0.005 C 
ATOM     12  C   UNL     1       1.660  -3.521  -0.632  0.00  0.00    +0.001 C 
ATOM     13  C   UNL     1       0.963  -2.291  -1.228  0.00  0.00    +0.005 C 
ATOM     14  C   UNL     1      -0.375  -1.900  -0.600  0.00  0.00    +0.037 C 
ENDROOT
BRANCH   3  15
ATOM     15  N   UNL     1      -0.844   1.300  -0.082  0.00  0.00    -0.314 N 
ATOM     16  C   UNL     1      -1.820   2.297  -0.517  0.00  0.00    +0.106 C 
ATOM     17  C   UNL     1      -1.307   3.720  -0.286  0.00  0.00    +0.020 C 
ATOM     18  C   UNL     1       0.099   3.916  -0.855  0.00  0.00    +0.016 C 
ATOM     19  C   UNL     1       1.064   2.839  -0.338  0.00  0.00    +0.092 C 
ATOM     20  C   UNL     1       0.509   1.440  -0.633  0.00  0.00    +0.119 C 
BRANCH  19  21
ATOM     21  C   UNL     1       2.432   2.997  -0.973  0.00  0.00    +0.215 C 
ATOM     22  O   UNL     1       2.908   2.220  -1.793  0.00  0.00    -0.276 OA
ATOM     23  N   UNL     1       3.134   4.094  -0.568  0.00  0.00    -0.329 N 
ATOM     24  H   UNL     1       4.054   4.240  -0.965  0.00  0.00    +0.145 HD
ATOM     25  H   UNL     1       2.792   4.749   0.121  0.00  0.00    +0.145 HD
ENDBRANCH  19  21
ENDBRANCH   3  15
TORSDOF 2
