REMARK  Name = 
REMARK  2 active torsions:
REMARK  status: ('A' for Active; 'I' for Inactive)
REMARK    1  A    between atoms: C_3  and  N_15
REMARK    2  A    between atoms: C_19  and  C_21
REMARK                            x       y       z     vdW  Elec       q    Type
REMARK                         _______ _______ _______ _____ _____    ______ ____
ROOT
ATOM      1  C   UNL     1       0.693   2.672  -1.763  0.00  0.00    +0.224 A 
ATOM      2  N   UNL     1      -0.401   1.907  -1.652  0.00  0.00    -0.220 NA
ATOM      3  C   UNL     1      -0.275   0.658  -1.139  0.00  0.00    +0.133 A 
ATOM      4  C   UNL     1       1.014   0.192  -0.785  0.00  0.00    +0.051 A 
ATOM      5  C   UNL     1       1.524  -1.087  -0.294  0.00  0.00    -0.025 A 
ATOM      6  C   UNL     1       2.895  -1.029  -0.080  0.00  0.00    -0.004 A 
ATOM      7  S   UNL     1       3.555   0.492  -0.490  0.00  0.00    -0.073 S 
ATOM      8  C   UNL     1       2.043   1.103  -0.958  0.00  0.00    +0.114 A 
ATOM      9  N   UNL     1       1.944   2.356  -1.433  0.00  0.00    -0.228 NA
ATOM     10  C   UNL     1       3.803  -2.099   0.443  0.00  0.00    +0.043 C 
ATOM     11  C   UNL     1       3.827  -3.339  -0.450  0.00  0.00    +0.005 C 
ATOM     12  C   UNL     1       2.467  -3.963  -0.792  0.00  0.00    +0.001 C 
ATOM     13  C   UNL     1       1.342  -3.637   0.188  0.00  0.00    +0.005 C 
ATOM     14  C   UNL     1       0.649  -2.301  -0.096  0.00  0.00    +0.037 C 
ENDROOT
BRANCH   3  15
ATOM     15  N   UNL     1      -1.430  -0.104  -0.970  0.00  0.00    -0.314 N 
ATOM     16  C   UNL     1      -2.066   0.109   0.335  0.00  0.00    +0.106 C 
ATOM     17  C   UNL     1      -3.471  -0.489   0.336  0.00  0.00    +0.020 C 
ATOM     18  C   UNL     1      -4.360   0.160  -0.733  0.00  0.00    +0.016 C 
ATOM     19  C   UNL     1      -3.562   0.652  -1.953  0.00  0.00    +0.092 C 
ATOM     20  C   UNL     1      -2.303  -0.194  -2.147  0.00  0.00    +0.119 C 
BRANCH  19  21
ATOM     21  C   UNL     1      -4.372   0.627  -3.235  0.00  0.00    +0.215 C 
ATOM     22  O   UNL     1      -5.361  -0.071  -3.422  0.00  0.00    -0.276 OA
ATOM     23  N   UNL     1      -3.905   1.445  -4.224  0.00  0.00    -0.329 N 
ATOM     24  H   UNL     1      -4.409   1.463  -5.101  0.00  0.00    +0.145 HD
ATOM     25  H   UNL     1      -3.096   2.042  -4.111  0.00  0.00    +0.145 HD
ENDBRANCH  19  21
ENDBRANCH   3  15
TORSDOF 2
