REMARK  Name = 
REMARK  3 active torsions:
REMARK  status: ('A' for Active; 'I' for Inactive)
REMARK    1  A    between atoms: C_3  and  N_15
REMARK    2  A    between atoms: C_21  and  O_22
REMARK    3  A    between atoms: C_21  and  N_23
REMARK                            x       y       z     vdW  Elec       q    Type
REMARK                         _______ _______ _______ _____ _____    ______ ____
ROOT
ATOM      1  C   UNL     1       1.760  -3.133  -2.394  0.00  0.00    +0.224 A 
ATOM      2  N   UNL     1       1.298  -1.885  -2.530  0.00  0.00    -0.220 NA
ATOM      3  C   UNL     1       0.948  -1.187  -1.422  0.00  0.00    +0.133 A 
ATOM      4  C   UNL     1       1.047  -1.820  -0.157  0.00  0.00    +0.051 A 
ATOM      5  C   UNL     1       0.695  -1.436   1.207  0.00  0.00    -0.025 A 
ATOM      6  C   UNL     1       1.040  -2.422   2.125  0.00  0.00    -0.004 A 
ATOM      7  S   UNL     1       1.701  -3.803   1.358  0.00  0.00    -0.073 S 
ATOM      8  C   UNL     1       1.560  -3.109  -0.183  0.00  0.00    +0.114 A 
ATOM      9  N   UNL     1       1.938  -3.812  -1.263  0.00  0.00    -0.228 NA
ATOM     10  C   UNL     1       0.922  -2.450   3.626  0.00  0.00    +0.043 C 
ATOM     11  C   UNL     1       0.535  -1.132   4.301  0.00  0.00    +0.005 C 
ATOM     12  C   UNL     1       1.351   0.066   3.817  0.00  0.00    +0.001 C 
ATOM     13  C   UNL     1       0.826   0.726   2.535  0.00  0.00    +0.005 C 
ATOM     14  C   UNL     1       0.004  -0.163   1.602  0.00  0.00    +0.037 C 
ENDROOT
BRANCH   3  15
ATOM     15  N   UNL     1       0.541   0.136  -1.586  0.00  0.00    -0.310 N 
ATOM     16  C   UNL     1       1.637   1.093  -1.449  0.00  0.00    +0.107 C 
ATOM     17  C   UNL     1       1.226   2.481  -1.938  0.00  0.00    +0.023 C 
ATOM     18  C   UNL     1      -0.260   2.733  -1.712  0.00  0.00    +0.039 C 
ATOM     19  C   UNL     1      -1.100   1.696  -2.425  0.00  0.00    +0.004 C 
ATOM     20  C   UNL     1      -0.424   0.357  -2.660  0.00  0.00    +0.142 C 
ATOM     21  C   UNL     1      -2.357   1.928  -2.841  0.00  0.00    +0.175 C 
BRANCH  21  22
ATOM     22  N   UNL     1      -3.065   3.067  -2.667  0.00  0.00    -0.330 N 
ATOM     23  H   UNL     1      -2.643   3.840  -2.168  0.00  0.00    +0.145 HD
ATOM     24  H   UNL     1      -3.853   3.272  -3.265  0.00  0.00    +0.145 HD
ENDBRANCH  21  22
BRANCH  21  25
ATOM     25  O   UNL     1      -3.039   0.952  -3.510  0.00  0.00    -0.495 OA
ATOM     26  H   UNL     1      -3.976   1.163  -3.379  0.00  0.00    +0.293 HD
ENDBRANCH  21  25
ENDBRANCH   3  15
TORSDOF 3
