REMARK  Name = 
REMARK  2 active torsions:
REMARK  status: ('A' for Active; 'I' for Inactive)
REMARK    1  A    between atoms: C_3  and  N_15
REMARK    2  A    between atoms: C_19  and  C_21
REMARK                            x       y       z     vdW  Elec       q    Type
REMARK                         _______ _______ _______ _____ _____    ______ ____
ROOT
ATOM      1  C   UNL     1      -0.610   2.878   1.020  0.00  0.00    +0.224 A 
ATOM      2  N   UNL     1      -1.207   1.684   1.119  0.00  0.00    -0.220 NA
ATOM      3  C   UNL     1      -0.583   0.587   0.624  0.00  0.00    +0.133 A 
ATOM      4  C   UNL     1       0.721   0.743   0.083  0.00  0.00    +0.051 A 
ATOM      5  C   UNL     1       1.736  -0.190  -0.409  0.00  0.00    -0.025 A 
ATOM      6  C   UNL     1       2.841   0.484  -0.918  0.00  0.00    -0.004 A 
ATOM      7  S   UNL     1       2.719   2.175  -0.697  0.00  0.00    -0.073 S 
ATOM      8  C   UNL     1       1.192   2.046   0.029  0.00  0.00    +0.114 A 
ATOM      9  N   UNL     1       0.570   3.151   0.470  0.00  0.00    -0.228 NA
ATOM     10  C   UNL     1       4.085  -0.062  -1.567  0.00  0.00    +0.043 C 
ATOM     11  C   UNL     1       3.828  -1.344  -2.354  0.00  0.00    +0.005 C 
ATOM     12  C   UNL     1       3.720  -2.596  -1.482  0.00  0.00    +0.001 C 
ATOM     13  C   UNL     1       2.915  -2.447  -0.190  0.00  0.00    +0.005 C 
ATOM     14  C   UNL     1       1.595  -1.694  -0.358  0.00  0.00    +0.037 C 
ENDROOT
BRANCH   3  15
ATOM     15  N   UNL     1      -1.258  -0.627   0.662  0.00  0.00    -0.314 N 
ATOM     16  C   UNL     1      -1.713  -1.157  -0.622  0.00  0.00    +0.106 C 
ATOM     17  C   UNL     1      -3.123  -0.651  -0.933  0.00  0.00    +0.020 C 
ATOM     18  C   UNL     1      -4.090  -0.946   0.213  0.00  0.00    +0.016 C 
ATOM     19  C   UNL     1      -3.562  -0.393   1.546  0.00  0.00    +0.092 C 
ATOM     20  C   UNL     1      -2.135  -0.887   1.810  0.00  0.00    +0.119 C 
BRANCH  19  21
ATOM     21  C   UNL     1      -4.475  -0.803   2.686  0.00  0.00    +0.215 C 
ATOM     22  O   UNL     1      -4.196  -1.646   3.531  0.00  0.00    -0.276 OA
ATOM     23  N   UNL     1      -5.683  -0.168   2.715  0.00  0.00    -0.329 N 
ATOM     24  H   UNL     1      -5.947   0.549   2.054  0.00  0.00    +0.145 HD
ATOM     25  H   UNL     1      -6.326  -0.411   3.458  0.00  0.00    +0.145 HD
ENDBRANCH  19  21
ENDBRANCH   3  15
TORSDOF 2
