REMARK  Name = 
REMARK  8 active torsions:
REMARK  status: ('A' for Active; 'I' for Inactive)
REMARK    1  A    between atoms: C_1  and  C_2
REMARK    2  A    between atoms: C_6  and  N_8
REMARK    3  A    between atoms: N_8  and  S_9
REMARK    4  A    between atoms: S_9  and  C_12
REMARK    5  A    between atoms: C_16  and  C_18
REMARK    6  A    between atoms: N_20  and  C_21
REMARK    7  A    between atoms: C_24  and  S_27
REMARK    8  A    between atoms: S_27  and  N_30
REMARK                            x       y       z     vdW  Elec       q    Type
REMARK                         _______ _______ _______ _____ _____    ______ ____
ROOT
ATOM      1  C   UNL     1      -0.748   0.748  -2.888  0.00  0.00    +0.248 C 
ATOM      2  O   UNL     1      -1.233   1.847  -3.127  0.00  0.00    -0.270 OA
ATOM      3  N   UNL     1      -0.088   0.364  -1.733  0.00  0.00    -0.282 N 
ATOM      4  H   UNL     1       0.343  -0.553  -1.726  0.00  0.00    +0.155 HD
ENDROOT
BRANCH   1   9
ATOM      5  C   UNL     1      -0.977  -2.595  -4.671  0.00  0.00    +0.109 A 
ATOM      6  C   UNL     1      -0.916  -2.197  -6.010  0.00  0.00    +0.029 A 
ATOM      7  C   UNL     1      -0.815  -0.841  -6.316  0.00  0.00    +0.003 A 
ATOM      8  C   UNL     1      -0.766   0.105  -5.290  0.00  0.00    +0.013 A 
ATOM      9  C   UNL     1      -0.823  -0.297  -3.948  0.00  0.00    +0.039 A 
ATOM     10  C   UNL     1      -0.964  -1.653  -3.636  0.00  0.00    +0.042 A 
BRANCH   5  11
ATOM     11  S   UNL     1      -1.096  -4.326  -4.269  0.00  0.00    +0.072 S 
ATOM     12  O   UNL     1      -1.774  -4.436  -2.996  0.00  0.00    -0.150 OA
ATOM     13  O   UNL     1      -1.579  -5.016  -5.446  0.00  0.00    -0.150 OA
BRANCH  11  14
ATOM     14  N   UNL     1       0.524  -4.775  -4.090  0.00  0.00    -0.216 N 
ATOM     15  H   UNL     1       0.942  -5.064  -4.973  0.00  0.00    +0.174 HD
BRANCH  14  21
ATOM     16  C   UNL     1       1.648  -3.594   0.592  0.00  0.00    +0.044 C 
ATOM     17  C   UNL     1       1.876  -3.434  -0.883  0.00  0.00    -0.049 A 
ATOM     18  C   UNL     1       2.886  -2.596  -1.369  0.00  0.00    +0.003 A 
ATOM     19  C   UNL     1       3.114  -2.488  -2.742  0.00  0.00    +0.002 A 
ATOM     20  C   UNL     1       2.343  -3.226  -3.641  0.00  0.00    +0.024 A 
ATOM     21  C   UNL     1       1.340  -4.070  -3.164  0.00  0.00    +0.048 A 
ATOM     22  C   UNL     1       1.107  -4.173  -1.792  0.00  0.00    +0.027 A 
ENDBRANCH  14  21
ENDBRANCH  11  14
ENDBRANCH   5  11
ENDBRANCH   1   9
BRANCH   3  23
ATOM     23  C   UNL     1       0.098   1.129  -0.562  0.00  0.00    +0.034 A 
ATOM     24  C   UNL     1      -0.389   2.428  -0.389  0.00  0.00    +0.025 A 
ATOM     25  C   UNL     1      -0.162   3.119   0.805  0.00  0.00    +0.030 A 
ATOM     26  C   UNL     1       0.547   2.502   1.837  0.00  0.00    +0.106 A 
ATOM     27  C   UNL     1       1.043   1.209   1.682  0.00  0.00    +0.030 A 
ATOM     28  C   UNL     1       0.816   0.528   0.483  0.00  0.00    +0.025 A 
BRANCH  26  29
ATOM     29  S   UNL     1       0.816   3.388   3.350  0.00  0.00    +0.061 S 
ATOM     30  O   UNL     1       1.520   2.522   4.272  0.00  0.00    -0.153 OA
ATOM     31  O   UNL     1       1.339   4.691   3.001  0.00  0.00    -0.153 OA
BRANCH  29  32
ATOM     32  N   UNL     1      -0.766   3.593   3.957  0.00  0.00    -0.172 NA
ATOM     33  C   UNL     1      -1.523   2.324   4.218  0.00  0.00    +0.137 C 
ATOM     34  C   UNL     1      -2.689   2.582   5.177  0.00  0.00    +0.177 C 
ATOM     35  O   UNL     1      -2.261   3.026   6.471  0.00  0.00    -0.377 OA
ATOM     36  C   UNL     1      -1.043   3.785   6.435  0.00  0.00    +0.177 C 
ATOM     37  C   UNL     1      -0.847   4.543   5.119  0.00  0.00    +0.137 C 
ENDBRANCH  29  32
ENDBRANCH  26  29
ENDBRANCH   3  23
TORSDOF 7
