REMARK  Name = 
REMARK  9 active torsions:
REMARK  status: ('A' for Active; 'I' for Inactive)
REMARK    1  A    between atoms: C_1  and  C_2
REMARK    2  A    between atoms: C_6  and  N_8
REMARK    3  A    between atoms: N_8  and  S_9
REMARK    4  A    between atoms: S_9  and  C_12
REMARK    5  A    between atoms: C_16  and  C_18
REMARK    6  A    between atoms: C_18  and  O_19
REMARK    7  A    between atoms: N_20  and  C_21
REMARK    8  A    between atoms: C_24  and  S_27
REMARK    9  A    between atoms: S_27  and  N_30
REMARK                            x       y       z     vdW  Elec       q    Type
REMARK                         _______ _______ _______ _____ _____    ______ ____
ROOT
ATOM      1  C   UNL     1       2.373  -1.738   2.044  0.00  0.00    +0.220 C 
ATOM      2  N   UNL     1       2.975  -0.994   2.909  0.00  0.00    -0.213 NA
ENDROOT
BRANCH   1   7
ATOM      3  C   UNL     1      -0.856  -1.834   0.139  0.00  0.00    +0.109 A 
ATOM      4  C   UNL     1      -0.659  -0.823  -0.808  0.00  0.00    +0.029 A 
ATOM      5  C   UNL     1       0.552  -0.133  -0.839  0.00  0.00    +0.003 A 
ATOM      6  C   UNL     1       1.554  -0.441   0.083  0.00  0.00    +0.013 A 
ATOM      7  C   UNL     1       1.338  -1.434   1.046  0.00  0.00    +0.038 A 
ATOM      8  C   UNL     1       0.133  -2.139   1.078  0.00  0.00    +0.042 A 
BRANCH   3   9
ATOM      9  S   UNL     1      -2.402  -2.711   0.192  0.00  0.00    +0.072 S 
ATOM     10  O   UNL     1      -2.630  -3.087   1.572  0.00  0.00    -0.150 OA
ATOM     11  O   UNL     1      -3.381  -1.939  -0.542  0.00  0.00    -0.150 OA
BRANCH   9  12
ATOM     12  N   UNL     1      -2.059  -4.139  -0.638  0.00  0.00    -0.216 N 
ATOM     13  H   UNL     1      -1.728  -4.876  -0.017  0.00  0.00    +0.174 HD
BRANCH  12  19
ATOM     14  C   UNL     1      -2.401  -2.810  -5.413  0.00  0.00    +0.044 C 
ATOM     15  C   UNL     1      -1.623  -3.393  -4.270  0.00  0.00    -0.049 A 
ATOM     16  C   UNL     1      -0.331  -3.892  -4.470  0.00  0.00    +0.003 A 
ATOM     17  C   UNL     1       0.377  -4.466  -3.412  0.00  0.00    +0.002 A 
ATOM     18  C   UNL     1      -0.205  -4.554  -2.148  0.00  0.00    +0.024 A 
ATOM     19  C   UNL     1      -1.497  -4.069  -1.943  0.00  0.00    +0.048 A 
ATOM     20  C   UNL     1      -2.207  -3.499  -3.000  0.00  0.00    +0.027 A 
ENDBRANCH  12  19
ENDBRANCH   9  12
ENDBRANCH   3   9
ENDBRANCH   1   7
BRANCH   2  21
ATOM     21  C   UNL     1       2.597   0.348   3.039  0.00  0.00    +0.068 A 
ATOM     22  C   UNL     1       1.368   0.702   3.610  0.00  0.00    +0.030 A 
ATOM     23  C   UNL     1       0.986   2.042   3.695  0.00  0.00    +0.030 A 
ATOM     24  C   UNL     1       1.842   3.032   3.206  0.00  0.00    +0.106 A 
ATOM     25  C   UNL     1       3.106   2.698   2.710  0.00  0.00    +0.030 A 
ATOM     26  C   UNL     1       3.476   1.354   2.627  0.00  0.00    +0.030 A 
BRANCH  24  27
ATOM     27  S   UNL     1       1.347   4.739   3.283  0.00  0.00    +0.061 S 
ATOM     28  O   UNL     1       0.349   4.850   4.325  0.00  0.00    -0.153 OA
ATOM     29  O   UNL     1       2.556   5.534   3.317  0.00  0.00    -0.153 OA
BRANCH  27  30
ATOM     30  N   UNL     1       0.590   4.996   1.801  0.00  0.00    -0.172 NA
ATOM     31  C   UNL     1       1.397   5.156   0.567  0.00  0.00    +0.137 C 
ATOM     32  C   UNL     1       1.350   3.898  -0.304  0.00  0.00    +0.177 C 
ATOM     33  O   UNL     1       0.003   3.502  -0.589  0.00  0.00    -0.377 OA
ATOM     34  C   UNL     1      -0.707   3.218   0.625  0.00  0.00    +0.177 C 
ATOM     35  C   UNL     1      -0.763   4.441   1.547  0.00  0.00    +0.137 C 
ENDBRANCH  27  30
ENDBRANCH  24  27
ENDBRANCH   2  21
BRANCH   1  36
ATOM     36  O   UNL     1       2.716  -3.035   1.985  0.00  0.00    -0.492 OA
ATOM     37  H   UNL     1       3.405  -3.176   2.657  0.00  0.00    +0.294 HD
ENDBRANCH   1  36
TORSDOF 8
