REMARK  Name = 
REMARK  8 active torsions:
REMARK  status: ('A' for Active; 'I' for Inactive)
REMARK    1  A    between atoms: C_1  and  C_2
REMARK    2  A    between atoms: C_6  and  N_8
REMARK    3  A    between atoms: N_8  and  S_9
REMARK    4  A    between atoms: S_9  and  C_12
REMARK    5  A    between atoms: C_16  and  C_18
REMARK    6  A    between atoms: N_20  and  C_21
REMARK    7  A    between atoms: C_24  and  S_27
REMARK    8  A    between atoms: S_27  and  N_30
REMARK                            x       y       z     vdW  Elec       q    Type
REMARK                         _______ _______ _______ _____ _____    ______ ____
ROOT
ATOM      1  C   UNL     1      -1.053  -1.218  -2.237  0.00  0.00    +0.248 C 
ATOM      2  O   UNL     1      -1.308  -2.414  -2.312  0.00  0.00    -0.270 OA
ATOM      3  N   UNL     1      -0.898  -0.473  -1.081  0.00  0.00    -0.282 N 
ATOM      4  H   UNL     1      -0.781   0.528  -1.185  0.00  0.00    +0.155 HD
ENDROOT
BRANCH   1   9
ATOM      5  C   UNL     1      -0.007   1.346  -4.833  0.00  0.00    +0.109 A 
ATOM      6  C   UNL     1      -0.800   0.973  -5.923  0.00  0.00    +0.029 A 
ATOM      7  C   UNL     1      -1.656  -0.121  -5.803  0.00  0.00    +0.003 A 
ATOM      8  C   UNL     1      -1.724  -0.826  -4.599  0.00  0.00    +0.013 A 
ATOM      9  C   UNL     1      -0.931  -0.447  -3.507  0.00  0.00    +0.039 A 
ATOM     10  C   UNL     1      -0.042   0.624  -3.635  0.00  0.00    +0.042 A 
BRANCH   5  11
ATOM     11  S   UNL     1       1.081   2.748  -4.973  0.00  0.00    +0.072 S 
ATOM     12  O   UNL     1       2.186   2.539  -4.063  0.00  0.00    -0.150 OA
ATOM     13  O   UNL     1       1.299   2.994  -6.383  0.00  0.00    -0.150 OA
BRANCH  11  14
ATOM     14  N   UNL     1       0.118   4.020  -4.415  0.00  0.00    -0.216 N 
ATOM     15  H   UNL     1      -0.433   4.441  -5.161  0.00  0.00    +0.174 HD
BRANCH  14  21
ATOM     16  C   UNL     1       0.625   3.910   0.516  0.00  0.00    +0.044 C 
ATOM     17  C   UNL     1      -0.240   3.819  -0.707  0.00  0.00    -0.049 A 
ATOM     18  C   UNL     1      -1.625   3.644  -0.600  0.00  0.00    +0.003 A 
ATOM     19  C   UNL     1      -2.422   3.603  -1.745  0.00  0.00    +0.002 A 
ATOM     20  C   UNL     1      -1.845   3.747  -3.007  0.00  0.00    +0.024 A 
ATOM     21  C   UNL     1      -0.467   3.929  -3.122  0.00  0.00    +0.048 A 
ATOM     22  C   UNL     1       0.332   3.963  -1.978  0.00  0.00    +0.027 A 
ENDBRANCH  14  21
ENDBRANCH  11  14
ENDBRANCH   5  11
ENDBRANCH   1   9
BRANCH   3  23
ATOM     23  C   UNL     1      -0.931  -0.944   0.249  0.00  0.00    +0.034 A 
ATOM     24  C   UNL     1      -1.131  -2.281   0.601  0.00  0.00    +0.025 A 
ATOM     25  C   UNL     1      -1.148  -2.669   1.945  0.00  0.00    +0.030 A 
ATOM     26  C   UNL     1      -0.939  -1.718   2.945  0.00  0.00    +0.106 A 
ATOM     27  C   UNL     1      -0.765  -0.374   2.610  0.00  0.00    +0.030 A 
ATOM     28  C   UNL     1      -0.754   0.005   1.265  0.00  0.00    +0.025 A 
BRANCH  26  29
ATOM     29  S   UNL     1      -0.983  -2.206   4.658  0.00  0.00    +0.061 S 
ATOM     30  O   UNL     1      -1.307  -1.027   5.433  0.00  0.00    -0.153 OA
ATOM     31  O   UNL     1      -1.786  -3.406   4.747  0.00  0.00    -0.153 OA
BRANCH  29  32
ATOM     32  N   UNL     1       0.622  -2.620   4.991  0.00  0.00    -0.172 NA
ATOM     33  C   UNL     1       1.607  -1.514   5.116  0.00  0.00    +0.137 C 
ATOM     34  C   UNL     1       3.017  -2.089   5.279  0.00  0.00    +0.177 C 
ATOM     35  O   UNL     1       3.442  -2.855   4.143  0.00  0.00    -0.377 OA
ATOM     36  C   UNL     1       2.367  -3.522   3.466  0.00  0.00    +0.177 C 
ATOM     37  C   UNL     1       1.181  -3.857   4.377  0.00  0.00    +0.137 C 
ENDBRANCH  29  32
ENDBRANCH  26  29
ENDBRANCH   3  23
TORSDOF 7
