REMARK  Name = 
REMARK  9 active torsions:
REMARK  status: ('A' for Active; 'I' for Inactive)
REMARK    1  A    between atoms: C_1  and  C_2
REMARK    2  A    between atoms: C_6  and  N_8
REMARK    3  A    between atoms: N_8  and  S_9
REMARK    4  A    between atoms: S_9  and  C_12
REMARK    5  A    between atoms: C_16  and  C_18
REMARK    6  A    between atoms: C_18  and  O_19
REMARK    7  A    between atoms: N_20  and  C_21
REMARK    8  A    between atoms: C_24  and  S_27
REMARK    9  A    between atoms: S_27  and  N_30
REMARK                            x       y       z     vdW  Elec       q    Type
REMARK                         _______ _______ _______ _____ _____    ______ ____
ROOT
ATOM      1  C   UNL     1       4.294   0.182   0.086  0.00  0.00    +0.220 C 
ATOM      2  N   UNL     1       3.863  -0.803   0.797  0.00  0.00    -0.213 NA
ENDROOT
BRANCH   1   7
ATOM      3  C   UNL     1       1.907   2.680  -1.392  0.00  0.00    +0.109 A 
ATOM      4  C   UNL     1       2.401   2.791  -2.698  0.00  0.00    +0.029 A 
ATOM      5  C   UNL     1       3.502   2.029  -3.090  0.00  0.00    +0.003 A 
ATOM      6  C   UNL     1       4.115   1.171  -2.175  0.00  0.00    +0.013 A 
ATOM      7  C   UNL     1       3.621   1.072  -0.869  0.00  0.00    +0.038 A 
ATOM      8  C   UNL     1       2.519   1.830  -0.466  0.00  0.00    +0.042 A 
BRANCH   3   9
ATOM      9  S   UNL     1       0.553   3.710  -0.870  0.00  0.00    +0.072 S 
ATOM     10  O   UNL     1       0.764   4.010   0.531  0.00  0.00    -0.150 OA
ATOM     11  O   UNL     1       0.397   4.772  -1.840  0.00  0.00    -0.150 OA
BRANCH   9  12
ATOM     12  N   UNL     1      -0.772   2.683  -0.931  0.00  0.00    -0.216 N 
ATOM     13  H   UNL     1      -1.020   2.302  -0.019  0.00  0.00    +0.174 HD
BRANCH  12  19
ATOM     14  C   UNL     1      -1.440   2.276  -5.864  0.00  0.00    +0.044 C 
ATOM     15  C   UNL     1      -1.444   1.683  -4.485  0.00  0.00    -0.049 A 
ATOM     16  C   UNL     1      -1.869   0.365  -4.282  0.00  0.00    +0.003 A 
ATOM     17  C   UNL     1      -1.932  -0.162  -2.993  0.00  0.00    +0.002 A 
ATOM     18  C   UNL     1      -1.563   0.624  -1.901  0.00  0.00    +0.024 A 
ATOM     19  C   UNL     1      -1.111   1.931  -2.090  0.00  0.00    +0.048 A 
ATOM     20  C   UNL     1      -1.091   2.469  -3.377  0.00  0.00    +0.027 A 
ENDBRANCH  12  19
ENDBRANCH   9  12
ENDBRANCH   3   9
ENDBRANCH   1   7
BRANCH   2  21
ATOM     21  C   UNL     1       2.538  -1.234   0.667  0.00  0.00    +0.068 A 
ATOM     22  C   UNL     1       2.106  -1.913  -0.479  0.00  0.00    +0.030 A 
ATOM     23  C   UNL     1       0.793  -2.378  -0.577  0.00  0.00    +0.030 A 
ATOM     24  C   UNL     1      -0.082  -2.180   0.493  0.00  0.00    +0.106 A 
ATOM     25  C   UNL     1       0.336  -1.510   1.646  0.00  0.00    +0.030 A 
ATOM     26  C   UNL     1       1.650  -1.048   1.731  0.00  0.00    +0.030 A 
BRANCH  24  27
ATOM     27  S   UNL     1      -1.758  -2.755   0.395  0.00  0.00    +0.061 S 
ATOM     28  O   UNL     1      -1.967  -3.347  -0.909  0.00  0.00    -0.153 OA
ATOM     29  O   UNL     1      -2.599  -1.673   0.861  0.00  0.00    -0.153 OA
BRANCH  27  30
ATOM     30  N   UNL     1      -1.802  -4.008   1.547  0.00  0.00    -0.172 NA
ATOM     31  C   UNL     1      -0.847  -5.141   1.301  0.00  0.00    +0.137 C 
ATOM     32  C   UNL     1      -1.282  -6.388   2.076  0.00  0.00    +0.177 C 
ATOM     33  O   UNL     1      -2.560  -6.887   1.659  0.00  0.00    -0.377 OA
ATOM     34  C   UNL     1      -3.446  -5.859   1.193  0.00  0.00    +0.177 C 
ATOM     35  C   UNL     1      -3.189  -4.501   1.851  0.00  0.00    +0.137 C 
ENDBRANCH  27  30
ENDBRANCH  24  27
ENDBRANCH   2  21
BRANCH   1  36
ATOM     36  O   UNL     1       5.589   0.516   0.206  0.00  0.00    -0.492 OA
ATOM     37  H   UNL     1       5.981  -0.085   0.863  0.00  0.00    +0.294 HD
ENDBRANCH   1  36
TORSDOF 8
