REMARK  Name = 
REMARK  8 active torsions:
REMARK  status: ('A' for Active; 'I' for Inactive)
REMARK    1  A    between atoms: C_1  and  C_2
REMARK    2  A    between atoms: C_6  and  N_8
REMARK    3  A    between atoms: N_8  and  S_9
REMARK    4  A    between atoms: S_9  and  C_12
REMARK    5  A    between atoms: C_16  and  C_18
REMARK    6  A    between atoms: N_20  and  C_21
REMARK    7  A    between atoms: C_24  and  S_27
REMARK    8  A    between atoms: S_27  and  N_30
REMARK                            x       y       z     vdW  Elec       q    Type
REMARK                         _______ _______ _______ _____ _____    ______ ____
ROOT
ATOM      1  C   UNL     1       0.625   0.280  -0.754  0.00  0.00    +0.248 C 
ATOM      2  O   UNL     1       1.653   0.636  -1.318  0.00  0.00    -0.270 OA
ATOM      3  N   UNL     1       0.198   0.650   0.509  0.00  0.00    -0.282 N 
ATOM      4  H   UNL     1      -0.739   0.376   0.779  0.00  0.00    +0.155 HD
ENDROOT
BRANCH   1   9
ATOM      5  C   UNL     1      -1.864  -2.458  -1.581  0.00  0.00    +0.109 A 
ATOM      6  C   UNL     1      -2.036  -2.266  -2.956  0.00  0.00    +0.029 A 
ATOM      7  C   UNL     1      -1.313  -1.265  -3.604  0.00  0.00    +0.003 A 
ATOM      8  C   UNL     1      -0.445  -0.448  -2.877  0.00  0.00    +0.013 A 
ATOM      9  C   UNL     1      -0.306  -0.617  -1.492  0.00  0.00    +0.039 A 
ATOM     10  C   UNL     1      -1.010  -1.635  -0.840  0.00  0.00    +0.042 A 
BRANCH   5  11
ATOM     11  S   UNL     1      -2.782  -3.732  -0.743  0.00  0.00    +0.072 S 
ATOM     12  O   UNL     1      -2.928  -3.303   0.633  0.00  0.00    -0.150 OA
ATOM     13  O   UNL     1      -3.937  -4.057  -1.551  0.00  0.00    -0.150 OA
BRANCH  11  14
ATOM     14  N   UNL     1      -1.708  -5.031  -0.722  0.00  0.00    -0.216 N 
ATOM     15  H   UNL     1      -1.129  -5.051   0.115  0.00  0.00    +0.174 HD
BRANCH  14  21
ATOM     16  C   UNL     1      -2.222  -6.991  -5.257  0.00  0.00    +0.044 C 
ATOM     17  C   UNL     1      -1.359  -6.442  -4.160  0.00  0.00    -0.049 A 
ATOM     18  C   UNL     1       0.019  -6.286  -4.350  0.00  0.00    +0.003 A 
ATOM     19  C   UNL     1       0.816  -5.751  -3.337  0.00  0.00    +0.002 A 
ATOM     20  C   UNL     1       0.240  -5.354  -2.130  0.00  0.00    +0.024 A 
ATOM     21  C   UNL     1      -1.135  -5.488  -1.940  0.00  0.00    +0.048 A 
ATOM     22  C   UNL     1      -1.932  -6.027  -2.950  0.00  0.00    +0.027 A 
ENDBRANCH  14  21
ENDBRANCH  11  14
ENDBRANCH   5  11
ENDBRANCH   1   9
BRANCH   3  23
ATOM     23  C   UNL     1       0.902   1.425   1.454  0.00  0.00    +0.034 A 
ATOM     24  C   UNL     1       0.233   1.743   2.645  0.00  0.00    +0.025 A 
ATOM     25  C   UNL     1       0.859   2.507   3.635  0.00  0.00    +0.030 A 
ATOM     26  C   UNL     1       2.160   2.969   3.428  0.00  0.00    +0.106 A 
ATOM     27  C   UNL     1       2.850   2.628   2.264  0.00  0.00    +0.030 A 
ATOM     28  C   UNL     1       2.216   1.866   1.277  0.00  0.00    +0.025 A 
BRANCH  26  29
ATOM     29  S   UNL     1       2.974   3.922   4.694  0.00  0.00    +0.061 S 
ATOM     30  O   UNL     1       2.304   3.637   5.946  0.00  0.00    -0.153 OA
ATOM     31  O   UNL     1       4.399   3.717   4.543  0.00  0.00    -0.153 OA
BRANCH  29  32
ATOM     32  N   UNL     1       2.625   5.520   4.270  0.00  0.00    -0.172 NA
ATOM     33  C   UNL     1       3.264   6.090   3.051  0.00  0.00    +0.137 C 
ATOM     34  C   UNL     1       2.203   6.498   2.023  0.00  0.00    +0.177 C 
ATOM     35  O   UNL     1       1.271   7.473   2.514  0.00  0.00    -0.377 OA
ATOM     36  C   UNL     1       1.082   7.421   3.935  0.00  0.00    +0.177 C 
ATOM     37  C   UNL     1       1.239   6.008   4.506  0.00  0.00    +0.137 C 
ENDBRANCH  29  32
ENDBRANCH  26  29
ENDBRANCH   3  23
TORSDOF 7
