REMARK  Name = 
REMARK  9 active torsions:
REMARK  status: ('A' for Active; 'I' for Inactive)
REMARK    1  A    between atoms: C_1  and  C_2
REMARK    2  A    between atoms: C_6  and  N_8
REMARK    3  A    between atoms: N_8  and  S_9
REMARK    4  A    between atoms: S_9  and  C_12
REMARK    5  A    between atoms: C_16  and  C_18
REMARK    6  A    between atoms: C_18  and  O_19
REMARK    7  A    between atoms: N_20  and  C_21
REMARK    8  A    between atoms: C_24  and  S_27
REMARK    9  A    between atoms: S_27  and  N_30
REMARK                            x       y       z     vdW  Elec       q    Type
REMARK                         _______ _______ _______ _____ _____    ______ ____
ROOT
ATOM      1  C   UNL     1       0.261   1.471  -0.313  0.00  0.00    +0.220 C 
ATOM      2  N   UNL     1      -0.889   1.859   0.135  0.00  0.00    -0.213 NA
ENDROOT
BRANCH   1   7
ATOM      3  C   UNL     1       3.473   2.854  -1.776  0.00  0.00    +0.109 A 
ATOM      4  C   UNL     1       3.232   4.230  -1.720  0.00  0.00    +0.029 A 
ATOM      5  C   UNL     1       2.018   4.692  -1.215  0.00  0.00    +0.003 A 
ATOM      6  C   UNL     1       1.057   3.783  -0.764  0.00  0.00    +0.013 A 
ATOM      7  C   UNL     1       1.306   2.402  -0.804  0.00  0.00    +0.038 A 
ATOM      8  C   UNL     1       2.527   1.938  -1.305  0.00  0.00    +0.042 A 
BRANCH   3   9
ATOM      9  S   UNL     1       5.025   2.263  -2.416  0.00  0.00    +0.072 S 
ATOM     10  O   UNL     1       5.996   3.324  -2.243  0.00  0.00    -0.150 OA
ATOM     11  O   UNL     1       5.260   0.941  -1.877  0.00  0.00    -0.150 OA
BRANCH   9  12
ATOM     12  N   UNL     1       4.739   2.160  -4.077  0.00  0.00    -0.216 N 
ATOM     13  H   UNL     1       4.980   3.023  -4.561  0.00  0.00    +0.174 HD
BRANCH  12  19
ATOM     14  C   UNL     1       2.285  -2.137  -4.506  0.00  0.00    +0.044 C 
ATOM     15  C   UNL     1       2.400  -0.665  -4.773  0.00  0.00    -0.049 A 
ATOM     16  C   UNL     1       1.362   0.027  -5.407  0.00  0.00    +0.003 A 
ATOM     17  C   UNL     1       1.459   1.401  -5.626  0.00  0.00    +0.002 A 
ATOM     18  C   UNL     1       2.590   2.099  -5.201  0.00  0.00    +0.024 A 
ATOM     19  C   UNL     1       3.620   1.421  -4.550  0.00  0.00    +0.048 A 
ATOM     20  C   UNL     1       3.527   0.045  -4.337  0.00  0.00    +0.027 A 
ENDBRANCH  12  19
ENDBRANCH   9  12
ENDBRANCH   3   9
ENDBRANCH   1   7
BRANCH   2  21
ATOM     21  C   UNL     1      -1.833   0.932   0.584  0.00  0.00    +0.068 A 
ATOM     22  C   UNL     1      -2.778   0.405  -0.301  0.00  0.00    +0.030 A 
ATOM     23  C   UNL     1      -3.735  -0.509   0.146  0.00  0.00    +0.030 A 
ATOM     24  C   UNL     1      -3.738  -0.901   1.488  0.00  0.00    +0.106 A 
ATOM     25  C   UNL     1      -2.821  -0.352   2.390  0.00  0.00    +0.030 A 
ATOM     26  C   UNL     1      -1.869   0.561   1.932  0.00  0.00    +0.030 A 
BRANCH  24  27
ATOM     27  S   UNL     1      -4.984  -2.032   2.075  0.00  0.00    +0.061 S 
ATOM     28  O   UNL     1      -5.157  -1.790   3.492  0.00  0.00    -0.153 OA
ATOM     29  O   UNL     1      -6.103  -1.956   1.160  0.00  0.00    -0.153 OA
BRANCH  27  30
ATOM     30  N   UNL     1      -4.260  -3.553   1.889  0.00  0.00    -0.172 NA
ATOM     31  C   UNL     1      -3.102  -3.867   2.772  0.00  0.00    +0.137 C 
ATOM     32  C   UNL     1      -2.797  -5.368   2.697  0.00  0.00    +0.177 C 
ATOM     33  O   UNL     1      -2.536  -5.774   1.344  0.00  0.00    -0.377 OA
ATOM     34  C   UNL     1      -3.686  -5.524   0.521  0.00  0.00    +0.177 C 
ATOM     35  C   UNL     1      -4.029  -4.029   0.497  0.00  0.00    +0.137 C 
ENDBRANCH  27  30
ENDBRANCH  24  27
ENDBRANCH   2  21
BRANCH   1  36
ATOM     36  O   UNL     1       0.651   0.184  -0.391  0.00  0.00    -0.492 OA
ATOM     37  H   UNL     1      -0.037  -0.410  -0.058  0.00  0.00    +0.294 HD
ENDBRANCH   1  36
TORSDOF 8
