REMARK  Name = 
REMARK  8 active torsions:
REMARK  status: ('A' for Active; 'I' for Inactive)
REMARK    1  A    between atoms: C_1  and  C_2
REMARK    2  A    between atoms: C_6  and  N_8
REMARK    3  A    between atoms: N_8  and  S_9
REMARK    4  A    between atoms: S_9  and  C_12
REMARK    5  A    between atoms: C_16  and  C_18
REMARK    6  A    between atoms: N_20  and  C_21
REMARK    7  A    between atoms: C_24  and  S_27
REMARK    8  A    between atoms: S_27  and  N_30
REMARK                            x       y       z     vdW  Elec       q    Type
REMARK                         _______ _______ _______ _____ _____    ______ ____
ROOT
ATOM      1  C   UNL     1       0.848   0.348   0.695  0.00  0.00    +0.248 C 
ATOM      2  O   UNL     1       0.210   0.256   1.737  0.00  0.00    -0.270 OA
ATOM      3  N   UNL     1       0.865  -0.563  -0.347  0.00  0.00    -0.282 N 
ATOM      4  H   UNL     1       1.548  -0.416  -1.080  0.00  0.00    +0.155 HD
ENDROOT
BRANCH   1   9
ATOM      5  C   UNL     1       2.784   3.230  -0.850  0.00  0.00    +0.109 A 
ATOM      6  C   UNL     1       3.378   3.799   0.280  0.00  0.00    +0.029 A 
ATOM      7  C   UNL     1       3.129   3.246   1.536  0.00  0.00    +0.003 A 
ATOM      8  C   UNL     1       2.304   2.124   1.655  0.00  0.00    +0.013 A 
ATOM      9  C   UNL     1       1.735   1.534   0.517  0.00  0.00    +0.039 A 
ATOM     10  C   UNL     1       1.975   2.091  -0.743  0.00  0.00    +0.042 A 
BRANCH   5  11
ATOM     11  S   UNL     1       3.090   3.929  -2.459  0.00  0.00    +0.072 S 
ATOM     12  O   UNL     1       4.299   4.720  -2.365  0.00  0.00    -0.150 OA
ATOM     13  O   UNL     1       2.969   2.857  -3.423  0.00  0.00    -0.150 OA
BRANCH  11  14
ATOM     14  N   UNL     1       1.821   5.025  -2.653  0.00  0.00    -0.216 N 
ATOM     15  H   UNL     1       2.050   5.948  -2.288  0.00  0.00    +0.174 HD
BRANCH  14  21
ATOM     16  C   UNL     1      -1.949   2.187  -4.199  0.00  0.00    +0.044 C 
ATOM     17  C   UNL     1      -1.352   3.145  -3.211  0.00  0.00    -0.049 A 
ATOM     18  C   UNL     1      -2.095   3.582  -2.107  0.00  0.00    +0.003 A 
ATOM     19  C   UNL     1      -1.551   4.498  -1.206  0.00  0.00    +0.002 A 
ATOM     20  C   UNL     1      -0.261   4.992  -1.403  0.00  0.00    +0.024 A 
ATOM     21  C   UNL     1       0.482   4.568  -2.504  0.00  0.00    +0.048 A 
ATOM     22  C   UNL     1      -0.064   3.657  -3.410  0.00  0.00    +0.027 A 
ENDBRANCH  14  21
ENDBRANCH  11  14
ENDBRANCH   5  11
ENDBRANCH   1   9
BRANCH   3  23
ATOM     23  C   UNL     1       0.064  -1.715  -0.487  0.00  0.00    +0.034 A 
ATOM     24  C   UNL     1       0.308  -2.531  -1.601  0.00  0.00    +0.025 A 
ATOM     25  C   UNL     1      -0.445  -3.689  -1.818  0.00  0.00    +0.030 A 
ATOM     26  C   UNL     1      -1.443  -4.043  -0.908  0.00  0.00    +0.106 A 
ATOM     27  C   UNL     1      -1.719  -3.221   0.186  0.00  0.00    +0.030 A 
ATOM     28  C   UNL     1      -0.959  -2.066   0.398  0.00  0.00    +0.025 A 
BRANCH  26  29
ATOM     29  S   UNL     1      -2.429  -5.499  -1.194  0.00  0.00    +0.061 S 
ATOM     30  O   UNL     1      -2.343  -5.805  -2.606  0.00  0.00    -0.153 OA
ATOM     31  O   UNL     1      -3.707  -5.292  -0.548  0.00  0.00    -0.153 OA
BRANCH  29  32
ATOM     32  N   UNL     1      -1.603  -6.707  -0.348  0.00  0.00    -0.172 NA
ATOM     33  C   UNL     1      -0.285  -7.165  -0.865  0.00  0.00    +0.137 C 
ATOM     34  C   UNL     1       0.819  -6.922   0.169  0.00  0.00    +0.177 C 
ATOM     35  O   UNL     1       0.594  -7.595   1.416  0.00  0.00    -0.377 OA
ATOM     36  C   UNL     1      -0.795  -7.789   1.721  0.00  0.00    +0.177 C 
ATOM     37  C   UNL     1      -1.695  -6.695   1.137  0.00  0.00    +0.137 C 
ENDBRANCH  29  32
ENDBRANCH  26  29
ENDBRANCH   3  23
TORSDOF 7
