REMARK  Name = 
REMARK  2 active torsions:
REMARK  status: ('A' for Active; 'I' for Inactive)
REMARK    1  A    between atoms: C_11  and  O_12
REMARK    2  A    between atoms: C_14  and  O_15
REMARK                            x       y       z     vdW  Elec       q    Type
REMARK                         _______ _______ _______ _____ _____    ______ ____
ROOT
ATOM      1  O   UNL     1      -1.959   0.263  -0.055  0.00  0.00    -0.297 OA
ATOM      2  C   UNL     1      -1.775  -0.856   0.431  0.00  0.00    +0.138 C 
ATOM      3  C   UNL     1      -2.522  -1.262   1.694  0.00  0.00    +0.075 C 
ATOM      4  C   UNL     1      -1.679  -1.865   2.817  0.00  0.00    +0.012 C 
ATOM      5  C   UNL     1      -0.787  -0.853   3.545  0.00  0.00    +0.027 C 
ATOM      6  C   UNL     1       0.412  -0.474   2.729  0.00  0.00    -0.031 C 
ATOM      7  C   UNL     1       0.642   0.763   2.262  0.00  0.00    -0.028 C 
ATOM      8  C   UNL     1       1.768   1.189   1.350  0.00  0.00    +0.068 C 
ATOM      9  C   UNL     1       2.530   0.077   0.613  0.00  0.00    +0.236 C 
ATOM     10  O   UNL     1       1.678  -0.689  -0.251  0.00  0.00    -0.464 OA
ATOM     11  C   UNL     1       1.302  -0.069  -1.426  0.00  0.00    +0.290 C 
ATOM     12  C   UNL     1       0.236  -0.514  -2.156  0.00  0.00    +0.101 C 
ATOM     13  C   UNL     1      -0.061   0.089  -3.477  0.00  0.00    +0.135 C 
ATOM     14  C   UNL     1      -0.764  -0.570  -4.404  0.00  0.00    +0.098 C 
ATOM     15  C   UNL     1      -1.317  -1.902  -4.098  0.00  0.00    +0.201 C 
ATOM     16  O   UNL     1      -1.754  -2.594  -5.011  0.00  0.00    -0.286 OA
ATOM     17  C   UNL     1      -1.373  -2.296  -2.657  0.00  0.00    +0.092 C 
ATOM     18 CL   UNL     1      -2.464  -3.599  -2.313  0.00  0.00    -0.079 Cl
ATOM     19  C   UNL     1      -0.677  -1.622  -1.712  0.00  0.00    -0.001 C 
ATOM     20  C   UNL     1      -0.887  -1.912  -0.232  0.00  0.00    +0.112 C 
ENDROOT
BRANCH  11  21
ATOM     21  O   UNL     1       2.108   0.975  -1.855  0.00  0.00    -0.480 OA
ATOM     22  H   UNL     1       1.656   1.387  -2.617  0.00  0.00    +0.295 HD
ENDBRANCH  11  21
BRANCH  13  23
ATOM     23  O   UNL     1       0.453   1.350  -3.727  0.00  0.00    -0.506 OA
ATOM     24  H   UNL     1       0.096   1.666  -4.578  0.00  0.00    +0.292 HD
ENDBRANCH  13  23
TORSDOF 2
