REMARK  Name = 
REMARK  2 active torsions:
REMARK  status: ('A' for Active; 'I' for Inactive)
REMARK    1  A    between atoms: C_11  and  O_12
REMARK    2  A    between atoms: C_17  and  O_18
REMARK                            x       y       z     vdW  Elec       q    Type
REMARK                         _______ _______ _______ _____ _____    ______ ____
ROOT
ATOM      1  O   UNL     1       0.807  -0.484  -1.839  0.00  0.00    -0.297 OA
ATOM      2  C   UNL     1       0.695  -1.159  -0.815  0.00  0.00    +0.138 C 
ATOM      3  C   UNL     1      -0.032  -2.495  -0.811  0.00  0.00    +0.075 C 
ATOM      4  C   UNL     1      -1.051  -2.689  -1.938  0.00  0.00    +0.012 C 
ATOM      5  C   UNL     1      -2.091  -1.575  -2.152  0.00  0.00    +0.027 C 
ATOM      6  C   UNL     1      -2.396  -0.739  -0.946  0.00  0.00    -0.031 C 
ATOM      7  C   UNL     1      -2.951  -1.197   0.186  0.00  0.00    -0.028 C 
ATOM      8  C   UNL     1      -3.068  -0.433   1.482  0.00  0.00    +0.068 C 
ATOM      9  C   UNL     1      -2.305   0.895   1.583  0.00  0.00    +0.236 C 
ATOM     10  O   UNL     1      -0.895   0.658   1.424  0.00  0.00    -0.464 OA
ATOM     11  C   UNL     1      -0.129   1.812   1.414  0.00  0.00    +0.290 C 
ATOM     12  C   UNL     1       1.162   1.796   0.974  0.00  0.00    +0.106 C 
ATOM     13  C   UNL     1       1.865   3.140   0.997  0.00  0.00    +0.197 C 
ATOM     14  O   UNL     1       1.355   4.157   1.466  0.00  0.00    -0.287 OA
ATOM     15  C   UNL     1       3.218   3.229   0.427  0.00  0.00    +0.098 C 
ATOM     16  C   UNL     1       3.822   2.139  -0.041  0.00  0.00    +0.139 C 
ATOM     17  C   UNL     1       3.204   0.826  -0.001  0.00  0.00    +0.087 C 
ATOM     18 CL   UNL     1       4.183  -0.484  -0.615  0.00  0.00    -0.079 Cl
ATOM     19  C   UNL     1       1.948   0.628   0.473  0.00  0.00    -0.001 C 
ATOM     20  C   UNL     1       1.361  -0.773   0.509  0.00  0.00    +0.112 C 
ENDROOT
BRANCH  11  21
ATOM     21  O   UNL     1      -0.760   2.958   1.878  0.00  0.00    -0.480 OA
ATOM     22  H   UNL     1      -0.131   3.713   1.852  0.00  0.00    +0.295 HD
ENDBRANCH  11  21
BRANCH  16  23
ATOM     23  O   UNL     1       5.091   2.252  -0.579  0.00  0.00    -0.505 OA
ATOM     24  H   UNL     1       5.349   1.375  -0.921  0.00  0.00    +0.292 HD
ENDBRANCH  16  23
TORSDOF 2
