REMARK  Name = 
REMARK  2 active torsions:
REMARK  status: ('A' for Active; 'I' for Inactive)
REMARK    1  A    between atoms: C_14  and  O_15
REMARK    2  A    between atoms: C_17  and  O_18
REMARK                            x       y       z     vdW  Elec       q    Type
REMARK                         _______ _______ _______ _____ _____    ______ ____
ROOT
ATOM      1  O   UNL     1       0.223  -2.774  -3.701  0.00  0.00    -0.297 OA
ATOM      2  C   UNL     1      -0.111  -1.926  -2.869  0.00  0.00    +0.138 C 
ATOM      3  C   UNL     1      -1.305  -2.154  -1.960  0.00  0.00    +0.075 C 
ATOM      4  C   UNL     1      -1.494  -3.624  -1.564  0.00  0.00    +0.012 C 
ATOM      5  C   UNL     1      -0.281  -4.310  -0.912  0.00  0.00    +0.027 C 
ATOM      6  C   UNL     1       0.485  -3.414   0.016  0.00  0.00    -0.031 C 
ATOM      7  C   UNL     1       0.053  -3.043   1.231  0.00  0.00    -0.028 C 
ATOM      8  C   UNL     1       0.664  -1.965   2.092  0.00  0.00    +0.068 C 
ATOM      9  C   UNL     1       1.532  -0.921   1.375  0.00  0.00    +0.236 C 
ATOM     10  O   UNL     1       0.780  -0.352   0.284  0.00  0.00    -0.461 OA
ATOM     11  C   UNL     1       1.146   0.882  -0.114  0.00  0.00    +0.343 C 
ATOM     12  O   UNL     1       1.998   1.599   0.385  0.00  0.00    -0.245 OA
ATOM     13  C   UNL     1       0.236   1.352  -1.181  0.00  0.00    +0.105 A 
ATOM     14  C   UNL     1      -0.361   2.607  -0.968  0.00  0.00    +0.135 A 
ATOM     15  C   UNL     1      -1.285   3.123  -1.868  0.00  0.00    +0.093 A 
ATOM     16  C   UNL     1      -1.584   2.403  -3.019  0.00  0.00    +0.139 A 
ATOM     17  C   UNL     1      -0.956   1.173  -3.283  0.00  0.00    +0.087 A 
ATOM     18 CL   UNL     1      -1.315   0.371  -4.780  0.00  0.00    -0.079 Cl
ATOM     19  C   UNL     1      -0.033   0.617  -2.365  0.00  0.00    -0.001 A 
ATOM     20  C   UNL     1       0.716  -0.660  -2.703  0.00  0.00    +0.112 C 
ENDROOT
BRANCH  14  21
ATOM     21  O   UNL     1      -0.080   3.400   0.115  0.00  0.00    -0.506 OA
ATOM     22  H   UNL     1       0.775   3.120   0.508  0.00  0.00    +0.292 HD
ENDBRANCH  14  21
BRANCH  16  23
ATOM     23  O   UNL     1      -2.486   2.915  -3.912  0.00  0.00    -0.505 OA
ATOM     24  H   UNL     1      -2.812   3.774  -3.596  0.00  0.00    +0.292 HD
ENDBRANCH  16  23
TORSDOF 2
