REMARK  Name = 
REMARK  1 active torsions:
REMARK  status: ('A' for Active; 'I' for Inactive)
REMARK    1  A    between atoms: C_14  and  O_15
REMARK                            x       y       z     vdW  Elec       q    Type
REMARK                         _______ _______ _______ _____ _____    ______ ____
ROOT
ATOM      1  O   UNL     1      -3.105   1.063   0.271  0.00  0.00    -0.297 OA
ATOM      2  C   UNL     1      -2.184   0.245   0.220  0.00  0.00    +0.138 C 
ATOM      3  C   UNL     1      -2.111  -0.902   1.213  0.00  0.00    +0.075 C 
ATOM      4  C   UNL     1      -2.505  -2.272   0.655  0.00  0.00    +0.012 C 
ATOM      5  C   UNL     1      -1.452  -3.006  -0.192  0.00  0.00    +0.027 C 
ATOM      6  C   UNL     1      -0.080  -3.015   0.427  0.00  0.00    -0.031 C 
ATOM      7  C   UNL     1       1.013  -2.568  -0.212  0.00  0.00    -0.028 C 
ATOM      8  C   UNL     1       2.358  -2.358   0.427  0.00  0.00    +0.068 C 
ATOM      9  C   UNL     1       2.413  -1.064   1.250  0.00  0.00    +0.236 C 
ATOM     10  O   UNL     1       2.019   0.062   0.441  0.00  0.00    -0.461 OA
ATOM     11  C   UNL     1       1.122   0.908   1.012  0.00  0.00    +0.343 C 
ATOM     12  O   UNL     1       0.638   0.824   2.130  0.00  0.00    -0.245 OA
ATOM     13  C   UNL     1       0.701   1.935   0.022  0.00  0.00    +0.102 C 
ATOM     14  C   UNL     1       1.385   3.092   0.044  0.00  0.00    +0.116 C 
ATOM     15  C   UNL     1       1.045   4.251  -0.841  0.00  0.00    +0.154 C 
ATOM     16  C   UNL     1      -0.119   4.005  -1.783  0.00  0.00    +0.182 C 
ATOM     17  O   UNL     1      -0.453   4.886  -2.578  0.00  0.00    -0.291 OA
ATOM     18  C   UNL     1      -0.826   2.687  -1.734  0.00  0.00    +0.088 C 
ATOM     19 CL   UNL     1      -2.137   2.497  -2.849  0.00  0.00    -0.080 Cl
ATOM     20  C   UNL     1      -0.438   1.717  -0.879  0.00  0.00    -0.001 C 
ATOM     21  C   UNL     1      -1.100   0.352  -0.842  0.00  0.00    +0.112 C 
ENDROOT
BRANCH  14  22
ATOM     22  O   UNL     1       2.454   3.281   0.905  0.00  0.00    -0.510 OA
ATOM     23  H   UNL     1       2.766   4.203   0.848  0.00  0.00    +0.292 HD
ENDBRANCH  14  22
TORSDOF 1
