REMARK  Name = 
REMARK  1 active torsions:
REMARK  status: ('A' for Active; 'I' for Inactive)
REMARK    1  A    between atoms: C_14  and  O_15
REMARK                            x       y       z     vdW  Elec       q    Type
REMARK                         _______ _______ _______ _____ _____    ______ ____
ROOT
ATOM      1  O   UNL     1       0.134  -1.407  -1.031  0.00  0.00    -0.297 OA
ATOM      2  C   UNL     1       0.684  -1.403   0.070  0.00  0.00    +0.138 C 
ATOM      3  C   UNL     1       0.507  -2.543   1.058  0.00  0.00    +0.075 C 
ATOM      4  C   UNL     1      -0.893  -3.157   1.073  0.00  0.00    +0.012 C 
ATOM      5  C   UNL     1      -2.065  -2.181   1.265  0.00  0.00    +0.027 C 
ATOM      6  C   UNL     1      -1.773  -1.048   2.209  0.00  0.00    -0.031 C 
ATOM      7  C   UNL     1      -2.036   0.232   1.903  0.00  0.00    -0.028 C 
ATOM      8  C   UNL     1      -1.617   1.405   2.746  0.00  0.00    +0.068 C 
ATOM      9  C   UNL     1      -1.099   2.581   1.908  0.00  0.00    +0.236 C 
ATOM     10  O   UNL     1       0.010   2.183   1.077  0.00  0.00    -0.461 OA
ATOM     11  C   UNL     1      -0.274   1.996  -0.237  0.00  0.00    +0.343 C 
ATOM     12  O   UNL     1      -1.361   2.182  -0.771  0.00  0.00    -0.245 OA
ATOM     13  C   UNL     1       0.960   1.678  -1.015  0.00  0.00    +0.102 C 
ATOM     14  C   UNL     1       1.096   2.360  -2.175  0.00  0.00    +0.116 C 
ATOM     15  C   UNL     1       2.306   2.251  -3.051  0.00  0.00    +0.154 C 
ATOM     16  C   UNL     1       3.445   1.482  -2.421  0.00  0.00    +0.182 C 
ATOM     17  O   UNL     1       4.582   1.552  -2.893  0.00  0.00    -0.291 OA
ATOM     18  C   UNL     1       3.145   0.603  -1.249  0.00  0.00    +0.088 C 
ATOM     19 CL   UNL     1       4.387  -0.537  -0.845  0.00  0.00    -0.080 Cl
ATOM     20  C   UNL     1       1.964   0.683  -0.598  0.00  0.00    -0.001 C 
ATOM     21  C   UNL     1       1.612  -0.277   0.527  0.00  0.00    +0.112 C 
ENDROOT
BRANCH  14  22
ATOM     22  O   UNL     1       0.151   3.240  -2.679  0.00  0.00    -0.510 OA
ATOM     23  H   UNL     1      -0.718   3.073  -2.250  0.00  0.00    +0.292 HD
ENDBRANCH  14  22
TORSDOF 1
