REMARK  Name = 
REMARK  3 active torsions:
REMARK  status: ('A' for Active; 'I' for Inactive)
REMARK    1  A    between atoms: O_1  and  C_2
REMARK    2  A    between atoms: C_14  and  O_15
REMARK    3  A    between atoms: C_17  and  O_18
REMARK                            x       y       z     vdW  Elec       q    Type
REMARK                         _______ _______ _______ _____ _____    ______ ____
ROOT
ATOM      1  C   UNL     1      -2.110   0.202  -0.891  0.00  0.00    +0.095 C 
ATOM      2  C   UNL     1      -2.747   0.438   0.267  0.00  0.00    +0.014 C 
ATOM      3  C   UNL     1      -3.184  -0.577   1.292  0.00  0.00    +0.034 C 
ATOM      4  C   UNL     1      -2.337  -0.542   2.571  0.00  0.00    +0.031 C 
ATOM      5  C   UNL     1      -0.944  -1.046   2.317  0.00  0.00    -0.031 C 
ATOM      6  C   UNL     1       0.129  -0.244   2.253  0.00  0.00    -0.028 C 
ATOM      7  C   UNL     1       1.492  -0.709   1.823  0.00  0.00    +0.068 C 
ATOM      8  C   UNL     1       1.942   0.018   0.552  0.00  0.00    +0.236 C 
ATOM      9  O   UNL     1       1.083  -0.275  -0.566  0.00  0.00    -0.461 OA
ATOM     10  C   UNL     1       1.377  -1.394  -1.259  0.00  0.00    +0.343 C 
ATOM     11  O   UNL     1       2.264  -2.199  -1.017  0.00  0.00    -0.245 OA
ATOM     12  C   UNL     1       0.605  -1.438  -2.520  0.00  0.00    +0.105 A 
ATOM     13  C   UNL     1       1.353  -1.673  -3.690  0.00  0.00    +0.135 A 
ATOM     14  C   UNL     1       0.754  -1.653  -4.943  0.00  0.00    +0.093 A 
ATOM     15  C   UNL     1      -0.613  -1.427  -5.036  0.00  0.00    +0.139 A 
ATOM     16  C   UNL     1      -1.390  -1.244  -3.880  0.00  0.00    +0.087 A 
ATOM     17 CL   UNL     1      -3.096  -0.974  -4.066  0.00  0.00    -0.079 Cl
ATOM     18  C   UNL     1      -0.799  -1.262  -2.594  0.00  0.00    -0.001 A 
ATOM     19  C   UNL     1      -1.664  -1.175  -1.347  0.00  0.00    +0.110 C 
ENDROOT
BRANCH   1  20
ATOM     20  O   UNL     1      -1.846   1.297  -1.700  0.00  0.00    -0.511 OA
ATOM     21  H   UNL     1      -1.837   1.009  -2.629  0.00  0.00    +0.292 HD
ENDBRANCH   1  20
BRANCH  13  22
ATOM     22  O   UNL     1       2.700  -1.936  -3.682  0.00  0.00    -0.506 OA
ATOM     23  H   UNL     1       2.972  -2.193  -2.775  0.00  0.00    +0.292 HD
ENDBRANCH  13  22
BRANCH  15  24
ATOM     24  O   UNL     1      -1.205  -1.393  -6.270  0.00  0.00    -0.505 OA
ATOM     25  H   UNL     1      -0.536  -1.546  -6.959  0.00  0.00    +0.292 HD
ENDBRANCH  15  24
TORSDOF 3
