REMARK  Name = 
REMARK  1 active torsions:
REMARK  status: ('A' for Active; 'I' for Inactive)
REMARK    1  A    between atoms: C_14  and  O_15
REMARK                            x       y       z     vdW  Elec       q    Type
REMARK                         _______ _______ _______ _____ _____    ______ ____
ROOT
ATOM      1  O   UNL     1      -0.121  -1.275  -1.155  0.00  0.00    -0.297 OA
ATOM      2  C   UNL     1      -0.774  -1.382  -0.117  0.00  0.00    +0.138 C 
ATOM      3  C   UNL     1      -0.879  -2.694   0.652  0.00  0.00    +0.075 C 
ATOM      4  C   UNL     1       0.220  -3.709   0.332  0.00  0.00    +0.012 C 
ATOM      5  C   UNL     1       1.507  -3.502   1.141  0.00  0.00    +0.027 C 
ATOM      6  C   UNL     1       2.169  -2.187   0.861  0.00  0.00    -0.031 C 
ATOM      7  C   UNL     1       2.380  -1.233   1.780  0.00  0.00    -0.028 C 
ATOM      8  C   UNL     1       3.004   0.098   1.454  0.00  0.00    +0.068 C 
ATOM      9  C   UNL     1       2.043   1.261   1.701  0.00  0.00    +0.236 C 
ATOM     10  O   UNL     1       0.952   1.188   0.768  0.00  0.00    -0.461 OA
ATOM     11  C   UNL     1       0.127   2.259   0.790  0.00  0.00    +0.343 C 
ATOM     12  O   UNL     1       0.250   3.245   1.506  0.00  0.00    -0.245 OA
ATOM     13  C   UNL     1      -0.921   2.155  -0.266  0.00  0.00    +0.102 C 
ATOM     14  C   UNL     1      -1.119   3.279  -0.992  0.00  0.00    +0.116 C 
ATOM     15  C   UNL     1      -2.066   3.350  -2.150  0.00  0.00    +0.154 C 
ATOM     16  C   UNL     1      -2.785   2.055  -2.457  0.00  0.00    +0.182 C 
ATOM     17  O   UNL     1      -3.543   1.984  -3.426  0.00  0.00    -0.291 OA
ATOM     18  C   UNL     1      -2.588   0.891  -1.540  0.00  0.00    +0.088 C 
ATOM     19 CL   UNL     1      -3.575  -0.497  -1.871  0.00  0.00    -0.080 Cl
ATOM     20  C   UNL     1      -1.715   0.942  -0.509  0.00  0.00    -0.001 C 
ATOM     21  C   UNL     1      -1.587  -0.221   0.461  0.00  0.00    +0.112 C 
ENDROOT
BRANCH  14  22
ATOM     22  O   UNL     1      -0.474   4.484  -0.759  0.00  0.00    -0.510 OA
ATOM     23  H   UNL     1      -0.057   4.478   0.130  0.00  0.00    +0.292 HD
ENDBRANCH  14  22
TORSDOF 1
