REMARK  Name = 
REMARK  3 active torsions:
REMARK  status: ('A' for Active; 'I' for Inactive)
REMARK    1  A    between atoms: O_1  and  C_2
REMARK    2  A    between atoms: C_11  and  O_12
REMARK    3  A    between atoms: C_17  and  O_18
REMARK                            x       y       z     vdW  Elec       q    Type
REMARK                         _______ _______ _______ _____ _____    ______ ____
ROOT
ATOM      1  C   UNL     1       0.378   2.052   0.079  0.00  0.00    +0.095 C 
ATOM      2  C   UNL     1       0.629   1.450  -1.285  0.00  0.00    +0.074 C 
ATOM      3  C   UNL     1       2.054   0.893  -1.445  0.00  0.00    +0.012 C 
ATOM      4  C   UNL     1       2.103  -0.353  -2.336  0.00  0.00    +0.027 C 
ATOM      5  C   UNL     1       1.825  -1.595  -1.539  0.00  0.00    -0.031 C 
ATOM      6  C   UNL     1       0.686  -2.302  -1.595  0.00  0.00    -0.028 C 
ATOM      7  C   UNL     1       0.415  -3.526  -0.759  0.00  0.00    +0.068 C 
ATOM      8  C   UNL     1       0.366  -3.270   0.753  0.00  0.00    +0.236 C 
ATOM      9  O   UNL     1      -0.870  -2.678   1.179  0.00  0.00    -0.464 OA
ATOM     10  C   UNL     1      -0.848  -1.300   1.190  0.00  0.00    +0.291 C 
ATOM     11  C   UNL     1      -1.739  -0.555   0.497  0.00  0.00    +0.110 C 
ATOM     12  C   UNL     1      -2.776  -1.284  -0.321  0.00  0.00    +0.197 C 
ATOM     13  O   UNL     1      -2.645  -2.402  -0.805  0.00  0.00    -0.287 OA
ATOM     14  C   UNL     1      -4.045  -0.561  -0.545  0.00  0.00    +0.098 C 
ATOM     15  C   UNL     1      -4.125   0.745  -0.285  0.00  0.00    +0.139 C 
ATOM     16  C   UNL     1      -2.981   1.519   0.169  0.00  0.00    +0.091 C 
ATOM     17 CL   UNL     1      -3.188   3.255   0.165  0.00  0.00    -0.079 Cl
ATOM     18  C   UNL     1      -1.818   0.928   0.545  0.00  0.00    +0.018 C 
ATOM     19  C   UNL     1      -0.674   1.786   0.871  0.00  0.00    +0.051 C 
ENDROOT
BRANCH   1  20
ATOM     20  O   UNL     1       1.307   2.979   0.529  0.00  0.00    -0.511 OA
ATOM     21  H   UNL     1       1.953   3.145  -0.177  0.00  0.00    +0.292 HD
ENDBRANCH   1  20
BRANCH  10  22
ATOM     22  O   UNL     1       0.026  -0.713   2.082  0.00  0.00    -0.480 OA
ATOM     23  H   UNL     1       0.292  -1.429   2.683  0.00  0.00    +0.295 HD
ENDBRANCH  10  22
BRANCH  15  24
ATOM     24  O   UNL     1      -5.320   1.407  -0.503  0.00  0.00    -0.505 OA
ATOM     25  H   UNL     1      -5.177   2.353  -0.306  0.00  0.00    +0.292 HD
ENDBRANCH  15  24
TORSDOF 3
