REMARK  Name = 
REMARK  3 active torsions:
REMARK  status: ('A' for Active; 'I' for Inactive)
REMARK    1  A    between atoms: O_1  and  C_2
REMARK    2  A    between atoms: C_14  and  O_15
REMARK    3  A    between atoms: C_17  and  O_18
REMARK                            x       y       z     vdW  Elec       q    Type
REMARK                         _______ _______ _______ _____ _____    ______ ____
ROOT
ATOM      1  C   UNL     1      -2.384   0.021  -0.461  0.00  0.00    +0.095 C 
ATOM      2  C   UNL     1      -2.804  -1.422  -0.619  0.00  0.00    +0.074 C 
ATOM      3  C   UNL     1      -2.740  -2.273   0.662  0.00  0.00    +0.012 C 
ATOM      4  C   UNL     1      -1.455  -3.097   0.809  0.00  0.00    +0.027 C 
ATOM      5  C   UNL     1      -0.167  -2.387   1.113  0.00  0.00    -0.031 C 
ATOM      6  C   UNL     1      -0.011  -1.210   1.740  0.00  0.00    -0.028 C 
ATOM      7  C   UNL     1       1.337  -0.568   1.943  0.00  0.00    +0.068 C 
ATOM      8  C   UNL     1       1.480   0.773   1.208  0.00  0.00    +0.236 C 
ATOM      9  O   UNL     1       0.906   0.759  -0.111  0.00  0.00    -0.461 OA
ATOM     10  C   UNL     1       1.448  -0.089  -1.007  0.00  0.00    +0.343 C 
ATOM     11  O   UNL     1       2.516  -0.674  -0.869  0.00  0.00    -0.245 OA
ATOM     12  C   UNL     1       0.629  -0.235  -2.249  0.00  0.00    +0.109 A 
ATOM     13  C   UNL     1       1.281  -0.797  -3.369  0.00  0.00    +0.135 A 
ATOM     14  C   UNL     1       0.631  -0.959  -4.589  0.00  0.00    +0.093 A 
ATOM     15  C   UNL     1      -0.694  -0.565  -4.714  0.00  0.00    +0.139 A 
ATOM     16  C   UNL     1      -1.380  -0.019  -3.619  0.00  0.00    +0.091 A 
ATOM     17 CL   UNL     1      -3.032   0.484  -3.849  0.00  0.00    -0.079 Cl
ATOM     18  C   UNL     1      -0.737   0.136  -2.366  0.00  0.00    +0.017 A 
ATOM     19  C   UNL     1      -1.503   0.687  -1.229  0.00  0.00    +0.051 C 
ENDROOT
BRANCH   1  20
ATOM     20  O   UNL     1      -3.056   0.680   0.557  0.00  0.00    -0.511 OA
ATOM     21  H   UNL     1      -2.793   1.616   0.556  0.00  0.00    +0.292 HD
ENDBRANCH   1  20
BRANCH  13  22
ATOM     22  O   UNL     1       2.587  -1.224  -3.360  0.00  0.00    -0.506 OA
ATOM     23  H   UNL     1       2.934  -1.182  -2.440  0.00  0.00    +0.292 HD
ENDBRANCH  13  22
BRANCH  15  24
ATOM     24  O   UNL     1      -1.327  -0.713  -5.919  0.00  0.00    -0.505 OA
ATOM     25  H   UNL     1      -0.716  -1.106  -6.565  0.00  0.00    +0.292 HD
ENDBRANCH  15  24
TORSDOF 3
