REMARK  Name = 
REMARK  2 active torsions:
REMARK  status: ('A' for Active; 'I' for Inactive)
REMARK    1  A    between atoms: C_11  and  O_12
REMARK    2  A    between atoms: C_14  and  O_15
REMARK                            x       y       z     vdW  Elec       q    Type
REMARK                         _______ _______ _______ _____ _____    ______ ____
ROOT
ATOM      1  O   UNL     1       1.147  -0.815   0.682  0.00  0.00    -0.297 OA
ATOM      2  C   UNL     1       1.206  -0.053  -0.287  0.00  0.00    +0.138 C 
ATOM      3  C   UNL     1       2.321  -0.189  -1.316  0.00  0.00    +0.075 C 
ATOM      4  C   UNL     1       2.450  -1.607  -1.871  0.00  0.00    +0.012 C 
ATOM      5  C   UNL     1       1.731  -1.825  -3.207  0.00  0.00    +0.027 C 
ATOM      6  C   UNL     1       0.274  -1.470  -3.184  0.00  0.00    -0.031 C 
ATOM      7  C   UNL     1      -0.682  -2.289  -2.723  0.00  0.00    -0.028 C 
ATOM      8  C   UNL     1      -2.143  -1.927  -2.665  0.00  0.00    +0.068 C 
ATOM      9  C   UNL     1      -2.624  -1.769  -1.221  0.00  0.00    +0.236 C 
ATOM     10  O   UNL     1      -2.083  -0.554  -0.687  0.00  0.00    -0.464 OA
ATOM     11  C   UNL     1      -2.216  -0.432   0.681  0.00  0.00    +0.290 C 
ATOM     12  C   UNL     1      -1.493   0.490   1.377  0.00  0.00    +0.101 C 
ATOM     13  C   UNL     1      -1.652   0.587   2.836  0.00  0.00    +0.135 C 
ATOM     14  C   UNL     1      -1.486   1.742   3.480  0.00  0.00    +0.098 C 
ATOM     15  C   UNL     1      -1.011   2.919   2.722  0.00  0.00    +0.201 C 
ATOM     16  O   UNL     1      -1.092   4.037   3.217  0.00  0.00    -0.286 OA
ATOM     17  C   UNL     1      -0.365   2.644   1.394  0.00  0.00    +0.092 C 
ATOM     18 CL   UNL     1       0.656   3.913   0.806  0.00  0.00    -0.079 Cl
ATOM     19  C   UNL     1      -0.544   1.461   0.757  0.00  0.00    -0.001 C 
ATOM     20  C   UNL     1       0.216   1.095  -0.506  0.00  0.00    +0.112 C 
ENDROOT
BRANCH  11  21
ATOM     21  O   UNL     1      -3.159  -1.245   1.295  0.00  0.00    -0.480 OA
ATOM     22  H   UNL     1      -3.313  -0.917   2.202  0.00  0.00    +0.295 HD
ENDBRANCH  11  21
BRANCH  13  23
ATOM     23  O   UNL     1      -1.964  -0.567   3.526  0.00  0.00    -0.506 OA
ATOM     24  H   UNL     1      -1.442  -1.288   3.114  0.00  0.00    +0.292 HD
ENDBRANCH  13  23
TORSDOF 2
