REMARK  Name = 
REMARK  3 active torsions:
REMARK  status: ('A' for Active; 'I' for Inactive)
REMARK    1  A    between atoms: O_1  and  C_2
REMARK    2  A    between atoms: C_11  and  O_12
REMARK    3  A    between atoms: C_17  and  O_18
REMARK                            x       y       z     vdW  Elec       q    Type
REMARK                         _______ _______ _______ _____ _____    ______ ____
ROOT
ATOM      1  C   UNL     1      -1.680  -1.069   0.869  0.00  0.00    +0.095 C 
ATOM      2  C   UNL     1      -1.646  -1.484   2.150  0.00  0.00    +0.014 C 
ATOM      3  C   UNL     1      -0.706  -2.393   2.914  0.00  0.00    +0.034 C 
ATOM      4  C   UNL     1       0.724  -2.679   2.422  0.00  0.00    +0.031 C 
ATOM      5  C   UNL     1       1.640  -1.508   2.177  0.00  0.00    -0.031 C 
ATOM      6  C   UNL     1       1.387  -0.226   2.487  0.00  0.00    -0.028 C 
ATOM      7  C   UNL     1       2.154   0.944   1.937  0.00  0.00    +0.068 C 
ATOM      8  C   UNL     1       2.053   1.068   0.408  0.00  0.00    +0.236 C 
ATOM      9  O   UNL     1       0.681   0.959  -0.006  0.00  0.00    -0.464 OA
ATOM     10  C   UNL     1       0.525   1.108  -1.372  0.00  0.00    +0.290 C 
ATOM     11  C   UNL     1      -0.301   0.295  -2.090  0.00  0.00    +0.106 C 
ATOM     12  C   UNL     1      -0.461   0.671  -3.549  0.00  0.00    +0.197 C 
ATOM     13  O   UNL     1       0.246   1.509  -4.108  0.00  0.00    -0.287 OA
ATOM     14  C   UNL     1      -1.529   0.014  -4.318  0.00  0.00    +0.098 C 
ATOM     15  C   UNL     1      -2.235  -0.975  -3.774  0.00  0.00    +0.139 C 
ATOM     16  C   UNL     1      -1.970  -1.479  -2.437  0.00  0.00    +0.087 C 
ATOM     17 CL   UNL     1      -2.894  -2.883  -1.964  0.00  0.00    -0.079 Cl
ATOM     18  C   UNL     1      -1.058  -0.901  -1.616  0.00  0.00    -0.001 C 
ATOM     19  C   UNL     1      -0.752  -1.509  -0.250  0.00  0.00    +0.110 C 
ENDROOT
BRANCH   1  20
ATOM     20  O   UNL     1      -2.682  -0.190   0.473  0.00  0.00    -0.511 OA
ATOM     21  H   UNL     1      -3.151   0.135   1.259  0.00  0.00    +0.292 HD
ENDBRANCH   1  20
BRANCH  10  22
ATOM     22  O   UNL     1       1.213   2.180  -1.924  0.00  0.00    -0.480 OA
ATOM     23  H   UNL     1       1.040   2.213  -2.889  0.00  0.00    +0.295 HD
ENDBRANCH  10  22
BRANCH  15  24
ATOM     24  O   UNL     1      -3.242  -1.572  -4.512  0.00  0.00    -0.505 OA
ATOM     25  H   UNL     1      -3.655  -2.254  -3.949  0.00  0.00    +0.292 HD
ENDBRANCH  15  24
TORSDOF 3
