REMARK  Name = 
REMARK  3 active torsions:
REMARK  status: ('A' for Active; 'I' for Inactive)
REMARK    1  A    between atoms: O_1  and  C_2
REMARK    2  A    between atoms: C_11  and  O_12
REMARK    3  A    between atoms: C_17  and  O_18
REMARK                            x       y       z     vdW  Elec       q    Type
REMARK                         _______ _______ _______ _____ _____    ______ ____
ROOT
ATOM      1  C   UNL     1      -1.765   0.843  -0.284  0.00  0.00    +0.095 C 
ATOM      2  C   UNL     1      -2.842  -0.199  -0.478  0.00  0.00    +0.074 C 
ATOM      3  C   UNL     1      -3.071  -1.142   0.715  0.00  0.00    +0.012 C 
ATOM      4  C   UNL     1      -2.350  -2.490   0.594  0.00  0.00    +0.027 C 
ATOM      5  C   UNL     1      -0.860  -2.529   0.763  0.00  0.00    -0.031 C 
ATOM      6  C   UNL     1      -0.095  -1.676   1.464  0.00  0.00    -0.028 C 
ATOM      7  C   UNL     1       1.405  -1.801   1.544  0.00  0.00    +0.068 C 
ATOM      8  C   UNL     1       2.149  -0.527   1.116  0.00  0.00    +0.236 C 
ATOM      9  O   UNL     1       1.687   0.042  -0.113  0.00  0.00    -0.464 OA
ATOM     10  C   UNL     1       1.791  -0.766  -1.227  0.00  0.00    +0.291 C 
ATOM     11  C   UNL     1       0.881  -0.655  -2.232  0.00  0.00    +0.110 C 
ATOM     12  C   UNL     1       1.103  -1.534  -3.432  0.00  0.00    +0.197 C 
ATOM     13  O   UNL     1       1.942  -2.434  -3.456  0.00  0.00    -0.287 OA
ATOM     14  C   UNL     1       0.289  -1.275  -4.629  0.00  0.00    +0.098 C 
ATOM     15  C   UNL     1      -0.661  -0.340  -4.604  0.00  0.00    +0.139 C 
ATOM     16  C   UNL     1      -0.972   0.432  -3.410  0.00  0.00    +0.091 C 
ATOM     17 CL   UNL     1      -2.293   1.569  -3.576  0.00  0.00    -0.079 Cl
ATOM     18  C   UNL     1      -0.278   0.286  -2.252  0.00  0.00    +0.018 C 
ATOM     19  C   UNL     1      -0.690   1.045  -1.065  0.00  0.00    +0.051 C 
ENDROOT
BRANCH   1  20
ATOM     20  O   UNL     1      -1.954   1.720   0.777  0.00  0.00    -0.511 OA
ATOM     21  H   UNL     1      -2.823   1.546   1.177  0.00  0.00    +0.292 HD
ENDBRANCH   1  20
BRANCH  10  22
ATOM     22  O   UNL     1       2.868  -1.639  -1.256  0.00  0.00    -0.480 OA
ATOM     23  H   UNL     1       2.815  -2.181  -2.073  0.00  0.00    +0.295 HD
ENDBRANCH  10  22
BRANCH  15  24
ATOM     24  O   UNL     1      -1.404  -0.107  -5.747  0.00  0.00    -0.505 OA
ATOM     25  H   UNL     1      -2.041   0.607  -5.551  0.00  0.00    +0.292 HD
ENDBRANCH  15  24
TORSDOF 3
