REMARK  Name = 
REMARK  3 active torsions:
REMARK  status: ('A' for Active; 'I' for Inactive)
REMARK    1  A    between atoms: O_1  and  C_2
REMARK    2  A    between atoms: C_11  and  O_12
REMARK    3  A    between atoms: C_17  and  O_18
REMARK                            x       y       z     vdW  Elec       q    Type
REMARK                         _______ _______ _______ _____ _____    ______ ____
ROOT
ATOM      1  C   UNL     1       1.059  -1.233  -0.097  0.00  0.00    +0.095 C 
ATOM      2  C   UNL     1       1.351  -2.179   1.045  0.00  0.00    +0.074 C 
ATOM      3  C   UNL     1       0.177  -3.046   1.523  0.00  0.00    +0.012 C 
ATOM      4  C   UNL     1      -0.510  -2.522   2.788  0.00  0.00    +0.027 C 
ATOM      5  C   UNL     1      -1.343  -1.305   2.541  0.00  0.00    -0.031 C 
ATOM      6  C   UNL     1      -1.138  -0.112   3.120  0.00  0.00    -0.028 C 
ATOM      7  C   UNL     1      -2.003   1.087   2.833  0.00  0.00    +0.068 C 
ATOM      8  C   UNL     1      -1.337   2.077   1.876  0.00  0.00    +0.236 C 
ATOM      9  O   UNL     1      -1.088   1.409   0.635  0.00  0.00    -0.464 OA
ATOM     10  C   UNL     1      -0.886   2.263  -0.426  0.00  0.00    +0.291 C 
ATOM     11  C   UNL     1       0.151   2.071  -1.284  0.00  0.00    +0.110 C 
ATOM     12  C   UNL     1       0.224   3.019  -2.454  0.00  0.00    +0.197 C 
ATOM     13  O   UNL     1      -0.575   3.940  -2.621  0.00  0.00    -0.287 OA
ATOM     14  C   UNL     1       1.302   2.825  -3.434  0.00  0.00    +0.098 C 
ATOM     15  C   UNL     1       2.207   1.866  -3.250  0.00  0.00    +0.139 C 
ATOM     16  C   UNL     1       2.191   0.980  -2.096  0.00  0.00    +0.091 C 
ATOM     17 CL   UNL     1       3.560  -0.111  -1.984  0.00  0.00    -0.079 Cl
ATOM     18  C   UNL     1       1.214   1.032  -1.151  0.00  0.00    +0.018 C 
ATOM     19  C   UNL     1       1.282   0.091  -0.020  0.00  0.00    +0.051 C 
ENDROOT
BRANCH   1  20
ATOM     20  O   UNL     1       0.680  -1.807  -1.299  0.00  0.00    -0.511 OA
ATOM     21  H   UNL     1       0.616  -2.770  -1.179  0.00  0.00    +0.292 HD
ENDBRANCH   1  20
BRANCH  10  22
ATOM     22  O   UNL     1      -1.839   3.259  -0.580  0.00  0.00    -0.480 OA
ATOM     23  H   UNL     1      -1.640   3.770  -1.395  0.00  0.00    +0.295 HD
ENDBRANCH  10  22
BRANCH  15  24
ATOM     24  O   UNL     1       3.211   1.702  -4.189  0.00  0.00    -0.505 OA
ATOM     25  H   UNL     1       3.757   0.943  -3.908  0.00  0.00    +0.292 HD
ENDBRANCH  15  24
TORSDOF 3
