REMARK  Name = 
REMARK  3 active torsions:
REMARK  status: ('A' for Active; 'I' for Inactive)
REMARK    1  A    between atoms: O_1  and  C_2
REMARK    2  A    between atoms: C_14  and  O_15
REMARK    3  A    between atoms: C_17  and  O_18
REMARK                            x       y       z     vdW  Elec       q    Type
REMARK                         _______ _______ _______ _____ _____    ______ ____
ROOT
ATOM      1  C   UNL     1      -1.582  -0.829   0.217  0.00  0.00    +0.095 C 
ATOM      2  C   UNL     1      -1.751  -2.098   0.629  0.00  0.00    +0.014 C 
ATOM      3  C   UNL     1      -1.026  -3.373   0.259  0.00  0.00    +0.034 C 
ATOM      4  C   UNL     1       0.507  -3.405   0.156  0.00  0.00    +0.031 C 
ATOM      5  C   UNL     1       1.203  -2.729   1.305  0.00  0.00    -0.031 C 
ATOM      6  C   UNL     1       2.194  -1.845   1.115  0.00  0.00    -0.028 C 
ATOM      7  C   UNL     1       2.731  -0.924   2.173  0.00  0.00    +0.068 C 
ATOM      8  C   UNL     1       1.772   0.245   2.435  0.00  0.00    +0.236 C 
ATOM      9  O   UNL     1       1.333   0.802   1.183  0.00  0.00    -0.461 OA
ATOM     10  C   UNL     1       0.316   1.684   1.291  0.00  0.00    +0.343 C 
ATOM     11  O   UNL     1      -0.088   2.203   2.323  0.00  0.00    -0.245 OA
ATOM     12  C   UNL     1      -0.175   2.088  -0.046  0.00  0.00    +0.105 A 
ATOM     13  C   UNL     1      -0.298   3.474  -0.264  0.00  0.00    +0.135 A 
ATOM     14  C   UNL     1      -0.717   3.968  -1.491  0.00  0.00    +0.093 A 
ATOM     15  C   UNL     1      -1.062   3.076  -2.494  0.00  0.00    +0.139 A 
ATOM     16  C   UNL     1      -1.001   1.687  -2.287  0.00  0.00    +0.087 A 
ATOM     17 CL   UNL     1      -1.499   0.673  -3.605  0.00  0.00    -0.079 Cl
ATOM     18  C   UNL     1      -0.558   1.159  -1.055  0.00  0.00    -0.001 A 
ATOM     19  C   UNL     1      -0.560  -0.344  -0.795  0.00  0.00    +0.110 C 
ENDROOT
BRANCH   1  20
ATOM     20  O   UNL     1      -2.429   0.159   0.702  0.00  0.00    -0.511 OA
ATOM     21  H   UNL     1      -3.030  -0.222   1.365  0.00  0.00    +0.292 HD
ENDBRANCH   1  20
BRANCH  13  22
ATOM     22  O   UNL     1      -0.028   4.411   0.701  0.00  0.00    -0.506 OA
ATOM     23  H   UNL     1      -0.070   3.977   1.581  0.00  0.00    +0.292 HD
ENDBRANCH  13  22
BRANCH  15  24
ATOM     24  O   UNL     1      -1.480   3.614  -3.683  0.00  0.00    -0.505 OA
ATOM     25  H   UNL     1      -1.713   2.871  -4.270  0.00  0.00    +0.292 HD
ENDBRANCH  15  24
TORSDOF 3
