REMARK  Name = 
REMARK  2 active torsions:
REMARK  status: ('A' for Active; 'I' for Inactive)
REMARK    1  A    between atoms: C_11  and  O_12
REMARK    2  A    between atoms: C_17  and  O_18
REMARK                            x       y       z     vdW  Elec       q    Type
REMARK                         _______ _______ _______ _____ _____    ______ ____
ROOT
ATOM      1  O   UNL     1      -1.766   0.711   0.037  0.00  0.00    -0.297 OA
ATOM      2  C   UNL     1      -1.777  -0.459   0.428  0.00  0.00    +0.138 C 
ATOM      3  C   UNL     1      -2.585  -0.838   1.658  0.00  0.00    +0.075 C 
ATOM      4  C   UNL     1      -1.780  -1.450   2.802  0.00  0.00    +0.012 C 
ATOM      5  C   UNL     1      -0.857  -0.467   3.534  0.00  0.00    +0.027 C 
ATOM      6  C   UNL     1       0.328  -0.071   2.705  0.00  0.00    -0.031 C 
ATOM      7  C   UNL     1       1.528  -0.666   2.793  0.00  0.00    -0.028 C 
ATOM      8  C   UNL     1       2.724  -0.412   1.909  0.00  0.00    +0.068 C 
ATOM      9  C   UNL     1       2.482   0.321   0.584  0.00  0.00    +0.236 C 
ATOM     10  O   UNL     1       1.600  -0.463  -0.232  0.00  0.00    -0.464 OA
ATOM     11  C   UNL     1       1.335   0.086  -1.473  0.00  0.00    +0.290 C 
ATOM     12  C   UNL     1       0.245  -0.307  -2.188  0.00  0.00    +0.106 C 
ATOM     13  C   UNL     1       0.148   0.273  -3.580  0.00  0.00    +0.197 C 
ATOM     14  O   UNL     1       0.842   1.208  -3.976  0.00  0.00    -0.287 OA
ATOM     15  C   UNL     1      -0.791  -0.360  -4.523  0.00  0.00    +0.098 C 
ATOM     16  C   UNL     1      -1.637  -1.301  -4.098  0.00  0.00    +0.139 C 
ATOM     17  C   UNL     1      -1.718  -1.694  -2.698  0.00  0.00    +0.087 C 
ATOM     18 CL   UNL     1      -3.061  -2.727  -2.268  0.00  0.00    -0.079 Cl
ATOM     19  C   UNL     1      -0.842  -1.238  -1.767  0.00  0.00    -0.001 C 
ATOM     20  C   UNL     1      -1.023  -1.577  -0.293  0.00  0.00    +0.112 C 
ENDROOT
BRANCH  11  21
ATOM     21  O   UNL     1       2.272   0.993  -1.950  0.00  0.00    -0.480 OA
ATOM     22  H   UNL     1       1.952   1.371  -2.797  0.00  0.00    +0.295 HD
ENDBRANCH  11  21
BRANCH  16  23
ATOM     23  O   UNL     1      -2.510  -1.929  -4.964  0.00  0.00    -0.505 OA
ATOM     24  H   UNL     1      -2.398  -1.568  -5.859  0.00  0.00    +0.292 HD
ENDBRANCH  16  23
TORSDOF 2
