REMARK  Name = 
REMARK  1 active torsions:
REMARK  status: ('A' for Active; 'I' for Inactive)
REMARK    1  A    between atoms: C_14  and  O_15
REMARK                            x       y       z     vdW  Elec       q    Type
REMARK                         _______ _______ _______ _____ _____    ______ ____
ROOT
ATOM      1  O   UNL     1      -2.797  -0.801  -0.150  0.00  0.00    -0.297 OA
ATOM      2  C   UNL     1      -2.079   0.161  -0.416  0.00  0.00    +0.138 C 
ATOM      3  C   UNL     1      -1.839   1.296   0.569  0.00  0.00    +0.075 C 
ATOM      4  C   UNL     1      -1.866   0.922   2.050  0.00  0.00    +0.012 C 
ATOM      5  C   UNL     1      -1.228  -0.412   2.453  0.00  0.00    +0.027 C 
ATOM      6  C   UNL     1       0.113  -0.786   1.892  0.00  0.00    -0.031 C 
ATOM      7  C   UNL     1       1.079   0.010   1.405  0.00  0.00    -0.028 C 
ATOM      8  C   UNL     1       2.346  -0.552   0.817  0.00  0.00    +0.068 C 
ATOM      9  C   UNL     1       2.517  -0.291  -0.687  0.00  0.00    +0.236 C 
ATOM     10  O   UNL     1       1.358  -0.501  -1.517  0.00  0.00    -0.461 OA
ATOM     11  C   UNL     1       0.770  -1.722  -1.494  0.00  0.00    +0.343 C 
ATOM     12  O   UNL     1       1.075  -2.650  -0.760  0.00  0.00    -0.245 OA
ATOM     13  C   UNL     1      -0.287  -1.803  -2.556  0.00  0.00    +0.102 C 
ATOM     14  C   UNL     1      -0.134  -2.823  -3.426  0.00  0.00    +0.116 C 
ATOM     15  C   UNL     1      -1.138  -3.161  -4.483  0.00  0.00    +0.154 C 
ATOM     16  C   UNL     1      -2.404  -2.337  -4.427  0.00  0.00    +0.182 C 
ATOM     17  O   UNL     1      -3.351  -2.621  -5.163  0.00  0.00    -0.291 OA
ATOM     18  C   UNL     1      -2.451  -1.157  -3.511  0.00  0.00    +0.088 C 
ATOM     19 CL   UNL     1      -3.864  -0.162  -3.663  0.00  0.00    -0.080 Cl
ATOM     20  C   UNL     1      -1.444  -0.891  -2.649  0.00  0.00    -0.001 C 
ATOM     21  C   UNL     1      -1.467   0.366  -1.798  0.00  0.00    +0.112 C 
ENDROOT
BRANCH  14  22
ATOM     22  O   UNL     1       0.991  -3.632  -3.408  0.00  0.00    -0.510 OA
ATOM     23  H   UNL     1       0.838  -4.432  -3.943  0.00  0.00    +0.292 HD
ENDBRANCH  14  22
TORSDOF 1
