REMARK  Name = 
REMARK  3 active torsions:
REMARK  status: ('A' for Active; 'I' for Inactive)
REMARK    1  A    between atoms: O_1  and  C_2
REMARK    2  A    between atoms: C_14  and  O_15
REMARK    3  A    between atoms: C_17  and  O_18
REMARK                            x       y       z     vdW  Elec       q    Type
REMARK                         _______ _______ _______ _____ _____    ______ ____
ROOT
ATOM      1  C   UNL     1      -1.953  -0.781   0.862  0.00  0.00    +0.095 C 
ATOM      2  C   UNL     1      -1.806  -1.012   2.180  0.00  0.00    +0.014 C 
ATOM      3  C   UNL     1      -1.089  -2.093   2.957  0.00  0.00    +0.034 C 
ATOM      4  C   UNL     1       0.251  -2.659   2.466  0.00  0.00    +0.031 C 
ATOM      5  C   UNL     1       1.324  -1.683   2.060  0.00  0.00    -0.031 C 
ATOM      6  C   UNL     1       1.397  -0.380   2.374  0.00  0.00    -0.028 C 
ATOM      7  C   UNL     1       2.365   0.615   1.785  0.00  0.00    +0.068 C 
ATOM      8  C   UNL     1       2.736   0.406   0.312  0.00  0.00    +0.236 C 
ATOM      9  O   UNL     1       1.562   0.523  -0.511  0.00  0.00    -0.461 OA
ATOM     10  C   UNL     1       1.197  -0.592  -1.187  0.00  0.00    +0.343 C 
ATOM     11  O   UNL     1       1.734  -1.689  -1.175  0.00  0.00    -0.245 OA
ATOM     12  C   UNL     1      -0.019  -0.315  -1.970  0.00  0.00    +0.105 A 
ATOM     13  C   UNL     1       0.119   0.436  -3.149  0.00  0.00    +0.135 A 
ATOM     14  C   UNL     1      -0.973   0.654  -3.980  0.00  0.00    +0.093 A 
ATOM     15  C   UNL     1      -2.199   0.098  -3.638  0.00  0.00    +0.139 A 
ATOM     16  C   UNL     1      -2.355  -0.665  -2.470  0.00  0.00    +0.087 A 
ATOM     17 CL   UNL     1      -3.927  -1.337  -2.161  0.00  0.00    -0.079 Cl
ATOM     18  C   UNL     1      -1.266  -0.880  -1.602  0.00  0.00    -0.001 A 
ATOM     19  C   UNL     1      -1.440  -1.633  -0.289  0.00  0.00    +0.110 C 
ENDROOT
BRANCH   1  20
ATOM     20  O   UNL     1      -2.683   0.333   0.460  0.00  0.00    -0.511 OA
ATOM     21  H   UNL     1      -2.958   0.840   1.242  0.00  0.00    +0.292 HD
ENDBRANCH   1  20
BRANCH  13  22
ATOM     22  O   UNL     1       1.341   0.945  -3.499  0.00  0.00    -0.506 OA
ATOM     23  H   UNL     1       1.262   1.429  -4.339  0.00  0.00    +0.292 HD
ENDBRANCH  13  22
BRANCH  15  24
ATOM     24  O   UNL     1      -3.241   0.329  -4.498  0.00  0.00    -0.505 OA
ATOM     25  H   UNL     1      -4.027  -0.104  -4.114  0.00  0.00    +0.292 HD
ENDBRANCH  15  24
TORSDOF 3
