REMARK  Name = 
REMARK  3 active torsions:
REMARK  status: ('A' for Active; 'I' for Inactive)
REMARK    1  A    between atoms: O_1  and  C_2
REMARK    2  A    between atoms: C_11  and  O_12
REMARK    3  A    between atoms: C_17  and  O_18
REMARK                            x       y       z     vdW  Elec       q    Type
REMARK                         _______ _______ _______ _____ _____    ______ ____
ROOT
ATOM      1  C   UNL     1      -1.150  -1.523  -2.450  0.00  0.00    +0.095 C 
ATOM      2  C   UNL     1      -2.231  -2.260  -2.130  0.00  0.00    +0.014 C 
ATOM      3  C   UNL     1      -2.486  -3.409  -1.180  0.00  0.00    +0.034 C 
ATOM      4  C   UNL     1      -1.512  -3.757  -0.050  0.00  0.00    +0.031 C 
ATOM      5  C   UNL     1      -1.228  -2.697   0.980  0.00  0.00    -0.031 C 
ATOM      6  C   UNL     1      -1.894  -1.544   1.159  0.00  0.00    -0.028 C 
ATOM      7  C   UNL     1      -1.395  -0.365   1.959  0.00  0.00    +0.068 C 
ATOM      8  C   UNL     1       0.132  -0.211   2.022  0.00  0.00    +0.236 C 
ATOM      9  O   UNL     1       0.729  -0.291   0.719  0.00  0.00    -0.464 OA
ATOM     10  C   UNL     1       0.689   0.852  -0.054  0.00  0.00    +0.290 C 
ATOM     11  C   UNL     1       0.960   0.781  -1.382  0.00  0.00    +0.106 C 
ATOM     12  C   UNL     1       1.205   2.096  -2.065  0.00  0.00    +0.197 C 
ATOM     13  O   UNL     1       0.720   3.157  -1.679  0.00  0.00    -0.287 OA
ATOM     14  C   UNL     1       2.174   2.080  -3.181  0.00  0.00    +0.098 C 
ATOM     15  C   UNL     1       2.560   0.910  -3.704  0.00  0.00    +0.139 C 
ATOM     16  C   UNL     1       1.953  -0.355  -3.298  0.00  0.00    +0.087 C 
ATOM     17 CL   UNL     1       2.207  -1.715  -4.358  0.00  0.00    -0.079 Cl
ATOM     18  C   UNL     1       1.146  -0.433  -2.211  0.00  0.00    -0.001 C 
ATOM     19  C   UNL     1       0.278  -1.662  -1.924  0.00  0.00    +0.110 C 
ENDROOT
BRANCH   1  20
ATOM     20  O   UNL     1      -1.293  -0.528  -3.417  0.00  0.00    -0.511 OA
ATOM     21  H   UNL     1      -2.214  -0.506  -3.726  0.00  0.00    +0.292 HD
ENDBRANCH   1  20
BRANCH  10  22
ATOM     22  O   UNL     1       0.473   2.052   0.609  0.00  0.00    -0.480 OA
ATOM     23  H   UNL     1       0.400   2.771  -0.057  0.00  0.00    +0.295 HD
ENDBRANCH  10  22
BRANCH  15  24
ATOM     24  O   UNL     1       3.503   0.843  -4.711  0.00  0.00    -0.505 OA
ATOM     25  H   UNL     1       3.806   1.739  -4.931  0.00  0.00    +0.292 HD
ENDBRANCH  15  24
TORSDOF 3
