REMARK  Name = 
REMARK  3 active torsions:
REMARK  status: ('A' for Active; 'I' for Inactive)
REMARK    1  A    between atoms: O_1  and  C_2
REMARK    2  A    between atoms: C_14  and  O_15
REMARK    3  A    between atoms: C_17  and  O_18
REMARK                            x       y       z     vdW  Elec       q    Type
REMARK                         _______ _______ _______ _____ _____    ______ ____
ROOT
ATOM      1  C   UNL     1      -2.147   0.394   0.126  0.00  0.00    +0.095 C 
ATOM      2  C   UNL     1      -2.481   1.681   0.310  0.00  0.00    +0.014 C 
ATOM      3  C   UNL     1      -1.653   2.899  -0.014  0.00  0.00    +0.034 C 
ATOM      4  C   UNL     1      -0.551   3.224   1.013  0.00  0.00    +0.031 C 
ATOM      5  C   UNL     1       0.790   2.631   0.653  0.00  0.00    -0.031 C 
ATOM      6  C   UNL     1       1.497   1.796   1.434  0.00  0.00    -0.028 C 
ATOM      7  C   UNL     1       2.809   1.170   1.023  0.00  0.00    +0.068 C 
ATOM      8  C   UNL     1       2.762  -0.364   1.021  0.00  0.00    +0.236 C 
ATOM      9  O   UNL     1       1.868  -0.807  -0.015  0.00  0.00    -0.461 OA
ATOM     10  C   UNL     1       1.359  -2.050   0.147  0.00  0.00    +0.343 C 
ATOM     11  O   UNL     1       1.734  -2.900   0.940  0.00  0.00    -0.245 OA
ATOM     12  C   UNL     1       0.292  -2.312  -0.853  0.00  0.00    +0.105 A 
ATOM     13  C   UNL     1       0.319  -3.567  -1.486  0.00  0.00    +0.135 A 
ATOM     14  C   UNL     1      -0.560  -3.854  -2.523  0.00  0.00    +0.093 A 
ATOM     15  C   UNL     1      -1.467  -2.886  -2.931  0.00  0.00    +0.139 A 
ATOM     16  C   UNL     1      -1.543  -1.643  -2.284  0.00  0.00    +0.087 A 
ATOM     17 CL   UNL     1      -2.658  -0.479  -2.922  0.00  0.00    -0.079 Cl
ATOM     18  C   UNL     1      -0.708  -1.356  -1.186  0.00  0.00    -0.001 A 
ATOM     19  C   UNL     1      -0.808  -0.056  -0.409  0.00  0.00    +0.110 C 
ENDROOT
BRANCH   1  20
ATOM     20  O   UNL     1      -3.043  -0.574   0.555  0.00  0.00    -0.511 OA
ATOM     21  H   UNL     1      -2.636  -1.453   0.481  0.00  0.00    +0.292 HD
ENDBRANCH   1  20
BRANCH  13  22
ATOM     22  O   UNL     1       1.192  -4.565  -1.142  0.00  0.00    -0.506 OA
ATOM     23  H   UNL     1       1.603  -4.357  -0.276  0.00  0.00    +0.292 HD
ENDBRANCH  13  22
BRANCH  15  24
ATOM     24  O   UNL     1      -2.279  -3.205  -3.986  0.00  0.00    -0.505 OA
ATOM     25  H   UNL     1      -2.851  -2.433  -4.160  0.00  0.00    +0.292 HD
ENDBRANCH  15  24
TORSDOF 3
