REMARK  Name = 
REMARK  3 active torsions:
REMARK  status: ('A' for Active; 'I' for Inactive)
REMARK    1  A    between atoms: O_1  and  C_2
REMARK    2  A    between atoms: C_14  and  O_15
REMARK    3  A    between atoms: C_17  and  O_18
REMARK                            x       y       z     vdW  Elec       q    Type
REMARK                         _______ _______ _______ _____ _____    ______ ____
ROOT
ATOM      1  C   UNL     1      -0.231  -1.827   0.149  0.00  0.00    +0.095 C 
ATOM      2  C   UNL     1      -1.404  -1.512  -0.756  0.00  0.00    +0.074 C 
ATOM      3  C   UNL     1      -2.784  -1.383  -0.078  0.00  0.00    +0.012 C 
ATOM      4  C   UNL     1      -3.006  -0.139   0.796  0.00  0.00    +0.027 C 
ATOM      5  C   UNL     1      -2.073  -0.057   1.966  0.00  0.00    -0.031 C 
ATOM      6  C   UNL     1      -1.421   1.060   2.321  0.00  0.00    -0.028 C 
ATOM      7  C   UNL     1      -0.311   1.071   3.338  0.00  0.00    +0.068 C 
ATOM      8  C   UNL     1       0.975   1.709   2.796  0.00  0.00    +0.236 C 
ATOM      9  O   UNL     1       1.390   1.089   1.563  0.00  0.00    -0.461 OA
ATOM     10  C   UNL     1       1.027   1.740   0.434  0.00  0.00    +0.343 C 
ATOM     11  O   UNL     1       0.485   2.839   0.373  0.00  0.00    -0.245 OA
ATOM     12  C   UNL     1       1.462   1.048  -0.802  0.00  0.00    +0.109 A 
ATOM     13  C   UNL     1       1.857   1.872  -1.878  0.00  0.00    +0.135 A 
ATOM     14  C   UNL     1       2.317   1.330  -3.074  0.00  0.00    +0.093 A 
ATOM     15  C   UNL     1       2.365  -0.046  -3.217  0.00  0.00    +0.139 A 
ATOM     16  C   UNL     1       1.946  -0.890  -2.180  0.00  0.00    +0.091 A 
ATOM     17 CL   UNL     1       2.030  -2.605  -2.461  0.00  0.00    -0.079 Cl
ATOM     18  C   UNL     1       1.474  -0.356  -0.958  0.00  0.00    +0.017 A 
ATOM     19  C   UNL     1       0.994  -1.281   0.083  0.00  0.00    +0.051 C 
ENDROOT
BRANCH   1  20
ATOM     20  O   UNL     1      -0.429  -2.814   1.105  0.00  0.00    -0.511 OA
ATOM     21  H   UNL     1      -1.216  -3.331   0.862  0.00  0.00    +0.292 HD
ENDBRANCH   1  20
BRANCH  13  22
ATOM     22  O   UNL     1       1.817   3.243  -1.835  0.00  0.00    -0.506 OA
ATOM     23  H   UNL     1       1.276   3.523  -1.064  0.00  0.00    +0.292 HD
ENDBRANCH  13  22
BRANCH  15  24
ATOM     24  O   UNL     1       2.828  -0.532  -4.410  0.00  0.00    -0.505 OA
ATOM     25  H   UNL     1       2.811  -1.507  -4.357  0.00  0.00    +0.292 HD
ENDBRANCH  15  24
TORSDOF 3
