REMARK  Name = 
REMARK  2 active torsions:
REMARK  status: ('A' for Active; 'I' for Inactive)
REMARK    1  A    between atoms: C_11  and  O_12
REMARK    2  A    between atoms: C_14  and  O_15
REMARK                            x       y       z     vdW  Elec       q    Type
REMARK                         _______ _______ _______ _____ _____    ______ ____
ROOT
ATOM      1  O   UNL     1      -2.032  -2.179  -1.577  0.00  0.00    -0.297 OA
ATOM      2  C   UNL     1      -1.160  -1.332  -1.357  0.00  0.00    +0.138 C 
ATOM      3  C   UNL     1       0.100  -1.679  -0.578  0.00  0.00    +0.075 C 
ATOM      4  C   UNL     1      -0.005  -2.962   0.260  0.00  0.00    +0.012 C 
ATOM      5  C   UNL     1      -1.116  -2.975   1.321  0.00  0.00    +0.027 C 
ATOM      6  C   UNL     1      -1.181  -1.690   2.094  0.00  0.00    -0.031 C 
ATOM      7  C   UNL     1      -2.183  -0.811   1.935  0.00  0.00    -0.028 C 
ATOM      8  C   UNL     1      -2.193   0.581   2.497  0.00  0.00    +0.068 C 
ATOM      9  C   UNL     1      -1.046   1.457   1.976  0.00  0.00    +0.236 C 
ATOM     10  O   UNL     1      -1.019   1.413   0.541  0.00  0.00    -0.464 OA
ATOM     11  C   UNL     1      -0.080   2.239  -0.044  0.00  0.00    +0.290 C 
ATOM     12  C   UNL     1       0.390   2.010  -1.310  0.00  0.00    +0.101 C 
ATOM     13  C   UNL     1       1.419   2.913  -1.890  0.00  0.00    +0.135 C 
ATOM     14  C   UNL     1       2.126   2.587  -2.976  0.00  0.00    +0.098 C 
ATOM     15  C   UNL     1       1.878   1.318  -3.677  0.00  0.00    +0.201 C 
ATOM     16  O   UNL     1       2.644   0.972  -4.570  0.00  0.00    -0.286 OA
ATOM     17  C   UNL     1       0.666   0.547  -3.277  0.00  0.00    +0.092 C 
ATOM     18 CL   UNL     1       0.263  -0.761  -4.345  0.00  0.00    -0.079 Cl
ATOM     19  C   UNL     1      -0.061   0.862  -2.176  0.00  0.00    -0.001 C 
ATOM     20  C   UNL     1      -1.343   0.096  -1.887  0.00  0.00    +0.112 C 
ENDROOT
BRANCH  11  21
ATOM     21  O   UNL     1       0.360   3.297   0.735  0.00  0.00    -0.480 OA
ATOM     22  H   UNL     1       0.918   3.865   0.168  0.00  0.00    +0.295 HD
ENDBRANCH  11  21
BRANCH  13  23
ATOM     23  O   UNL     1       1.634   4.123  -1.248  0.00  0.00    -0.506 OA
ATOM     24  H   UNL     1       2.288   4.638  -1.758  0.00  0.00    +0.292 HD
ENDBRANCH  13  23
TORSDOF 2
