REMARK  Name = 
REMARK  3 active torsions:
REMARK  status: ('A' for Active; 'I' for Inactive)
REMARK    1  A    between atoms: O_1  and  C_2
REMARK    2  A    between atoms: C_11  and  O_12
REMARK    3  A    between atoms: C_17  and  O_18
REMARK                            x       y       z     vdW  Elec       q    Type
REMARK                         _______ _______ _______ _____ _____    ______ ____
ROOT
ATOM      1  C   UNL     1       1.247   1.569  -0.667  0.00  0.00    +0.095 C 
ATOM      2  C   UNL     1       2.052   0.570  -1.061  0.00  0.00    +0.014 C 
ATOM      3  C   UNL     1       1.652  -0.676  -1.798  0.00  0.00    +0.034 C 
ATOM      4  C   UNL     1       1.717  -1.905  -0.890  0.00  0.00    +0.031 C 
ATOM      5  C   UNL     1       1.034  -3.183  -1.304  0.00  0.00    -0.031 C 
ATOM      6  C   UNL     1       0.022  -3.457  -2.144  0.00  0.00    -0.028 C 
ATOM      7  C   UNL     1      -0.790  -2.561  -3.037  0.00  0.00    +0.068 C 
ATOM      8  C   UNL     1      -2.029  -1.942  -2.375  0.00  0.00    +0.236 C 
ATOM      9  O   UNL     1      -1.696  -0.831  -1.532  0.00  0.00    -0.464 OA
ATOM     10  C   UNL     1      -1.694  -1.052  -0.168  0.00  0.00    +0.290 C 
ATOM     11  C   UNL     1      -1.434  -0.030   0.692  0.00  0.00    +0.106 C 
ATOM     12  C   UNL     1      -1.666  -0.349   2.149  0.00  0.00    +0.197 C 
ATOM     13  O   UNL     1      -1.604  -1.489   2.604  0.00  0.00    -0.287 OA
ATOM     14  C   UNL     1      -2.056   0.775   3.017  0.00  0.00    +0.098 C 
ATOM     15  C   UNL     1      -1.944   2.026   2.567  0.00  0.00    +0.139 C 
ATOM     16  C   UNL     1      -1.349   2.337   1.274  0.00  0.00    +0.087 C 
ATOM     17 CL   UNL     1      -0.962   4.016   1.005  0.00  0.00    -0.079 Cl
ATOM     18  C   UNL     1      -1.050   1.370   0.371  0.00  0.00    -0.001 C 
ATOM     19  C   UNL     1      -0.256   1.674  -0.895  0.00  0.00    +0.110 C 
ENDROOT
BRANCH   1  20
ATOM     20  O   UNL     1       1.848   2.633  -0.005  0.00  0.00    -0.511 OA
ATOM     21  H   UNL     1       1.178   3.317   0.172  0.00  0.00    +0.292 HD
ENDBRANCH   1  20
BRANCH  10  22
ATOM     22  O   UNL     1      -2.033  -2.325   0.265  0.00  0.00    -0.480 OA
ATOM     23  H   UNL     1      -1.850  -2.399   1.227  0.00  0.00    +0.295 HD
ENDBRANCH  10  22
BRANCH  15  24
ATOM     24  O   UNL     1      -2.338   3.074   3.377  0.00  0.00    -0.505 OA
ATOM     25  H   UNL     1      -2.135   3.909   2.916  0.00  0.00    +0.292 HD
ENDBRANCH  15  24
TORSDOF 3
