REMARK  Name = 
REMARK  3 active torsions:
REMARK  status: ('A' for Active; 'I' for Inactive)
REMARK    1  A    between atoms: O_1  and  C_2
REMARK    2  A    between atoms: C_11  and  O_12
REMARK    3  A    between atoms: C_17  and  O_18
REMARK                            x       y       z     vdW  Elec       q    Type
REMARK                         _______ _______ _______ _____ _____    ______ ____
ROOT
ATOM      1  C   UNL     1      -0.840  -1.882  -0.314  0.00  0.00    +0.095 C 
ATOM      2  C   UNL     1      -0.026  -2.070   0.946  0.00  0.00    +0.074 C 
ATOM      3  C   UNL     1      -0.004  -0.911   1.949  0.00  0.00    +0.012 C 
ATOM      4  C   UNL     1      -1.380  -0.390   2.380  0.00  0.00    +0.027 C 
ATOM      5  C   UNL     1      -1.730   0.871   1.649  0.00  0.00    -0.031 C 
ATOM      6  C   UNL     1      -2.731   0.997   0.766  0.00  0.00    -0.028 C 
ATOM      7  C   UNL     1      -2.951   2.258  -0.028  0.00  0.00    +0.068 C 
ATOM      8  C   UNL     1      -2.793   2.045  -1.540  0.00  0.00    +0.236 C 
ATOM      9  O   UNL     1      -1.630   1.296  -1.906  0.00  0.00    -0.464 OA
ATOM     10  C   UNL     1      -0.406   1.878  -1.638  0.00  0.00    +0.291 C 
ATOM     11  C   UNL     1       0.701   1.097  -1.518  0.00  0.00    +0.110 C 
ATOM     12  C   UNL     1       2.011   1.814  -1.357  0.00  0.00    +0.197 C 
ATOM     13  O   UNL     1       2.088   2.999  -1.038  0.00  0.00    -0.287 OA
ATOM     14  C   UNL     1       3.237   1.052  -1.647  0.00  0.00    +0.098 C 
ATOM     15  C   UNL     1       3.166  -0.255  -1.902  0.00  0.00    +0.139 C 
ATOM     16  C   UNL     1       1.917  -1.001  -1.839  0.00  0.00    +0.091 C 
ATOM     17 CL   UNL     1       2.054  -2.729  -2.072  0.00  0.00    -0.079 Cl
ATOM     18  C   UNL     1       0.726  -0.391  -1.613  0.00  0.00    +0.018 C 
ATOM     19  C   UNL     1      -0.480  -1.199  -1.414  0.00  0.00    +0.051 C 
ENDROOT
BRANCH   1  20
ATOM     20  O   UNL     1      -2.066  -2.536  -0.348  0.00  0.00    -0.511 OA
ATOM     21  H   UNL     1      -2.237  -2.937   0.520  0.00  0.00    +0.292 HD
ENDBRANCH   1  20
BRANCH  10  22
ATOM     22  O   UNL     1      -0.378   3.262  -1.558  0.00  0.00    -0.480 OA
ATOM     23  H   UNL     1       0.528   3.546  -1.307  0.00  0.00    +0.295 HD
ENDBRANCH  10  22
BRANCH  15  24
ATOM     24  O   UNL     1       4.328  -0.948  -2.193  0.00  0.00    -0.505 OA
ATOM     25  H   UNL     1       4.090  -1.884  -2.340  0.00  0.00    +0.292 HD
ENDBRANCH  15  24
TORSDOF 3
