REMARK  Name = 
REMARK  2 active torsions:
REMARK  status: ('A' for Active; 'I' for Inactive)
REMARK    1  A    between atoms: C_11  and  O_12
REMARK    2  A    between atoms: C_14  and  O_15
REMARK                            x       y       z     vdW  Elec       q    Type
REMARK                         _______ _______ _______ _____ _____    ______ ____
ROOT
ATOM      1  O   UNL     1      -1.810  -2.833  -2.850  0.00  0.00    -0.297 OA
ATOM      2  C   UNL     1      -1.349  -1.780  -2.396  0.00  0.00    +0.138 C 
ATOM      3  C   UNL     1      -0.116  -1.132  -3.012  0.00  0.00    +0.075 C 
ATOM      4  C   UNL     1       0.840  -2.125  -3.681  0.00  0.00    +0.012 C 
ATOM      5  C   UNL     1       1.776  -2.857  -2.709  0.00  0.00    +0.027 C 
ATOM      6  C   UNL     1       1.042  -3.687  -1.700  0.00  0.00    -0.031 C 
ATOM      7  C   UNL     1       1.084  -3.579  -0.364  0.00  0.00    -0.028 C 
ATOM      8  C   UNL     1       1.918  -2.640   0.460  0.00  0.00    +0.068 C 
ATOM      9  C   UNL     1       1.496  -1.169   0.422  0.00  0.00    +0.236 C 
ATOM     10  O   UNL     1       0.090  -1.048   0.690  0.00  0.00    -0.464 OA
ATOM     11  C   UNL     1      -0.275   0.256   0.922  0.00  0.00    +0.290 C 
ATOM     12  C   UNL     1      -1.129   0.966   0.131  0.00  0.00    +0.101 C 
ATOM     13  C   UNL     1      -1.394   2.398   0.436  0.00  0.00    +0.135 C 
ATOM     14  C   UNL     1      -1.964   3.219  -0.448  0.00  0.00    +0.098 C 
ATOM     15  C   UNL     1      -2.402   2.721  -1.759  0.00  0.00    +0.201 C 
ATOM     16  O   UNL     1      -2.751   3.516  -2.626  0.00  0.00    -0.286 OA
ATOM     17  C   UNL     1      -2.436   1.240  -1.938  0.00  0.00    +0.092 C 
ATOM     18 CL   UNL     1      -3.331   0.702  -3.325  0.00  0.00    -0.079 Cl
ATOM     19  C   UNL     1      -1.847   0.392  -1.059  0.00  0.00    -0.001 C 
ATOM     20  C   UNL     1      -2.045  -1.107  -1.209  0.00  0.00    +0.112 C 
ENDROOT
BRANCH  11  21
ATOM     21  O   UNL     1       0.232   0.802   2.089  0.00  0.00    -0.480 OA
ATOM     22  H   UNL     1       0.518   0.029   2.613  0.00  0.00    +0.295 HD
ENDBRANCH  11  21
BRANCH  13  23
ATOM     23  O   UNL     1      -1.014   2.933   1.654  0.00  0.00    -0.506 OA
ATOM     24  H   UNL     1      -0.489   2.258   2.129  0.00  0.00    +0.292 HD
ENDBRANCH  13  23
TORSDOF 2
