REMARK  Name = 
REMARK  3 active torsions:
REMARK  status: ('A' for Active; 'I' for Inactive)
REMARK    1  A    between atoms: O_1  and  C_2
REMARK    2  A    between atoms: C_11  and  O_12
REMARK    3  A    between atoms: C_17  and  O_18
REMARK                            x       y       z     vdW  Elec       q    Type
REMARK                         _______ _______ _______ _____ _____    ______ ____
ROOT
ATOM      1  C   UNL     1       1.576  -1.464  -0.354  0.00  0.00    +0.095 C 
ATOM      2  C   UNL     1       2.678  -1.648   0.665  0.00  0.00    +0.074 C 
ATOM      3  C   UNL     1       2.280  -2.243   2.022  0.00  0.00    +0.012 C 
ATOM      4  C   UNL     1       1.805  -1.216   3.053  0.00  0.00    +0.027 C 
ATOM      5  C   UNL     1       0.473  -0.618   2.728  0.00  0.00    -0.031 C 
ATOM      6  C   UNL     1       0.246   0.700   2.623  0.00  0.00    -0.028 C 
ATOM      7  C   UNL     1      -1.102   1.272   2.282  0.00  0.00    +0.068 C 
ATOM      8  C   UNL     1      -1.109   1.995   0.935  0.00  0.00    +0.236 C 
ATOM      9  O   UNL     1      -0.789   1.057  -0.099  0.00  0.00    -0.464 OA
ATOM     10  C   UNL     1      -0.977   1.536  -1.382  0.00  0.00    +0.291 C 
ATOM     11  C   UNL     1      -0.349   0.934  -2.423  0.00  0.00    +0.110 C 
ATOM     12  C   UNL     1      -0.766   1.387  -3.796  0.00  0.00    +0.197 C 
ATOM     13  O   UNL     1      -1.347   2.450  -4.001  0.00  0.00    -0.287 OA
ATOM     14  C   UNL     1      -0.508   0.463  -4.911  0.00  0.00    +0.098 C 
ATOM     15  C   UNL     1       0.258  -0.610  -4.715  0.00  0.00    +0.139 C 
ATOM     16  C   UNL     1       0.927  -0.875  -3.448  0.00  0.00    +0.091 C 
ATOM     17 CL   UNL     1       2.178  -2.097  -3.521  0.00  0.00    -0.079 Cl
ATOM     18  C   UNL     1       0.653  -0.162  -2.321  0.00  0.00    +0.018 C 
ATOM     19  C   UNL     1       1.488  -0.360  -1.122  0.00  0.00    +0.051 C 
ENDROOT
BRANCH   1  20
ATOM     20  O   UNL     1       0.750  -2.558  -0.513  0.00  0.00    -0.511 OA
ATOM     21  H   UNL     1      -0.029  -2.279  -1.024  0.00  0.00    +0.292 HD
ENDBRANCH   1  20
BRANCH  10  22
ATOM     22  O   UNL     1      -1.871   2.584  -1.538  0.00  0.00    -0.480 OA
ATOM     23  H   UNL     1      -1.885   2.861  -2.481  0.00  0.00    +0.295 HD
ENDBRANCH  10  22
BRANCH  15  24
ATOM     24  O   UNL     1       0.478  -1.481  -5.767  0.00  0.00    -0.505 OA
ATOM     25  H   UNL     1       1.109  -2.163  -5.467  0.00  0.00    +0.292 HD
ENDBRANCH  15  24
TORSDOF 3
