REMARK  Name = 
REMARK  2 active torsions:
REMARK  status: ('A' for Active; 'I' for Inactive)
REMARK    1  A    between atoms: C_14  and  O_15
REMARK    2  A    between atoms: C_17  and  O_18
REMARK                            x       y       z     vdW  Elec       q    Type
REMARK                         _______ _______ _______ _____ _____    ______ ____
ROOT
ATOM      1  O   UNL     1       0.761   0.338   0.947  0.00  0.00    -0.297 OA
ATOM      2  C   UNL     1       0.515   0.931  -0.104  0.00  0.00    +0.138 C 
ATOM      3  C   UNL     1       1.602   1.622  -0.919  0.00  0.00    +0.075 C 
ATOM      4  C   UNL     1       3.013   1.085  -0.678  0.00  0.00    +0.012 C 
ATOM      5  C   UNL     1       3.357  -0.149  -1.523  0.00  0.00    +0.027 C 
ATOM      6  C   UNL     1       2.490  -1.333  -1.216  0.00  0.00    -0.031 C 
ATOM      7  C   UNL     1       1.702  -1.948  -2.111  0.00  0.00    -0.028 C 
ATOM      8  C   UNL     1       0.814  -3.113  -1.761  0.00  0.00    +0.068 C 
ATOM      9  C   UNL     1      -0.668  -2.789  -1.944  0.00  0.00    +0.236 C 
ATOM     10  O   UNL     1      -1.052  -1.776  -1.000  0.00  0.00    -0.461 OA
ATOM     11  C   UNL     1      -2.382  -1.568  -0.906  0.00  0.00    +0.343 C 
ATOM     12  O   UNL     1      -3.259  -2.164  -1.514  0.00  0.00    -0.245 OA
ATOM     13  C   UNL     1      -2.691  -0.579   0.151  0.00  0.00    +0.105 A 
ATOM     14  C   UNL     1      -3.764  -0.898   1.008  0.00  0.00    +0.135 A 
ATOM     15  C   UNL     1      -4.097  -0.073   2.075  0.00  0.00    +0.093 A 
ATOM     16  C   UNL     1      -3.379   1.095   2.276  0.00  0.00    +0.139 A 
ATOM     17  C   UNL     1      -2.340   1.461   1.408  0.00  0.00    +0.087 A 
ATOM     18 CL   UNL     1      -1.534   2.970   1.709  0.00  0.00    -0.079 Cl
ATOM     19  C   UNL     1      -1.985   0.639   0.315  0.00  0.00    -0.001 A 
ATOM     20  C   UNL     1      -0.899   1.082  -0.646  0.00  0.00    +0.112 C 
ENDROOT
BRANCH  14  21
ATOM     21  O   UNL     1      -4.543  -2.017   0.854  0.00  0.00    -0.506 OA
ATOM     22  H   UNL     1      -4.403  -2.388  -0.043  0.00  0.00    +0.292 HD
ENDBRANCH  14  21
BRANCH  16  23
ATOM     23  O   UNL     1      -3.743   1.873   3.342  0.00  0.00    -0.505 OA
ATOM     24  H   UNL     1      -3.122   2.624   3.381  0.00  0.00    +0.292 HD
ENDBRANCH  16  23
TORSDOF 2
