REMARK  Name = 
REMARK  3 active torsions:
REMARK  status: ('A' for Active; 'I' for Inactive)
REMARK    1  A    between atoms: O_1  and  C_2
REMARK    2  A    between atoms: C_14  and  O_15
REMARK    3  A    between atoms: C_17  and  O_18
REMARK                            x       y       z     vdW  Elec       q    Type
REMARK                         _______ _______ _______ _____ _____    ______ ____
ROOT
ATOM      1  C   UNL     1       1.214  -0.623   1.633  0.00  0.00    +0.095 C 
ATOM      2  C   UNL     1       1.061  -1.918   0.874  0.00  0.00    +0.074 C 
ATOM      3  C   UNL     1      -0.343  -2.247   0.338  0.00  0.00    +0.012 C 
ATOM      4  C   UNL     1      -1.503  -2.106   1.337  0.00  0.00    +0.027 C 
ATOM      5  C   UNL     1      -2.031  -0.699   1.355  0.00  0.00    -0.031 C 
ATOM      6  C   UNL     1      -1.975   0.119   2.418  0.00  0.00    -0.028 C 
ATOM      7  C   UNL     1      -2.243   1.603   2.412  0.00  0.00    +0.068 C 
ATOM      8  C   UNL     1      -2.113   2.317   1.059  0.00  0.00    +0.236 C 
ATOM      9  O   UNL     1      -0.783   2.124   0.530  0.00  0.00    -0.461 OA
ATOM     10  C   UNL     1      -0.710   1.609  -0.719  0.00  0.00    +0.343 C 
ATOM     11  O   UNL     1      -1.651   1.438  -1.485  0.00  0.00    -0.245 OA
ATOM     12  C   UNL     1       0.682   1.341  -1.162  0.00  0.00    +0.109 A 
ATOM     13  C   UNL     1       0.953   1.532  -2.534  0.00  0.00    +0.135 A 
ATOM     14  C   UNL     1       2.231   1.347  -3.053  0.00  0.00    +0.093 A 
ATOM     15  C   UNL     1       3.253   0.945  -2.209  0.00  0.00    +0.139 A 
ATOM     16  C   UNL     1       3.009   0.713  -0.849  0.00  0.00    +0.091 A 
ATOM     17 CL   UNL     1       4.354   0.216   0.135  0.00  0.00    -0.079 Cl
ATOM     18  C   UNL     1       1.715   0.890  -0.306  0.00  0.00    +0.017 A 
ATOM     19  C   UNL     1       1.490   0.589   1.119  0.00  0.00    +0.051 C 
ENDROOT
BRANCH   1  20
ATOM     20  O   UNL     1       1.097  -0.786   3.005  0.00  0.00    -0.511 OA
ATOM     21  H   UNL     1       1.197   0.079   3.437  0.00  0.00    +0.292 HD
ENDBRANCH   1  20
BRANCH  13  22
ATOM     22  O   UNL     1       0.000   1.908  -3.448  0.00  0.00    -0.506 OA
ATOM     23  H   UNL     1      -0.891   1.792  -3.049  0.00  0.00    +0.292 HD
ENDBRANCH  13  22
BRANCH  15  24
ATOM     24  O   UNL     1       4.492   0.782  -2.765  0.00  0.00    -0.505 OA
ATOM     25  H   UNL     1       5.098   0.490  -2.058  0.00  0.00    +0.292 HD
ENDBRANCH  15  24
TORSDOF 3
