REMARK  Name = 
REMARK  1 active torsions:
REMARK  status: ('A' for Active; 'I' for Inactive)
REMARK    1  A    between atoms: C_14  and  O_15
REMARK                            x       y       z     vdW  Elec       q    Type
REMARK                         _______ _______ _______ _____ _____    ______ ____
ROOT
ATOM      1  O   UNL     1      -2.120  -1.153   0.824  0.00  0.00    -0.297 OA
ATOM      2  C   UNL     1      -2.005  -0.055   0.275  0.00  0.00    +0.138 C 
ATOM      3  C   UNL     1      -2.801   1.130   0.794  0.00  0.00    +0.075 C 
ATOM      4  C   UNL     1      -2.077   2.473   0.863  0.00  0.00    +0.012 C 
ATOM      5  C   UNL     1      -0.937   2.524   1.889  0.00  0.00    +0.027 C 
ATOM      6  C   UNL     1       0.411   2.402   1.240  0.00  0.00    -0.031 C 
ATOM      7  C   UNL     1       1.334   1.483   1.564  0.00  0.00    -0.028 C 
ATOM      8  C   UNL     1       2.669   1.375   0.874  0.00  0.00    +0.068 C 
ATOM      9  C   UNL     1       3.023  -0.051   0.447  0.00  0.00    +0.236 C 
ATOM     10  O   UNL     1       2.100  -0.543  -0.539  0.00  0.00    -0.461 OA
ATOM     11  C   UNL     1       1.179  -1.426  -0.069  0.00  0.00    +0.343 C 
ATOM     12  O   UNL     1       1.024  -1.772   1.091  0.00  0.00    -0.245 OA
ATOM     13  C   UNL     1       0.348  -1.908  -1.205  0.00  0.00    +0.102 C 
ATOM     14  C   UNL     1       0.733  -3.075  -1.755  0.00  0.00    +0.116 C 
ATOM     15  C   UNL     1      -0.029  -3.740  -2.858  0.00  0.00    +0.154 C 
ATOM     16  C   UNL     1      -1.267  -2.991  -3.310  0.00  0.00    +0.182 C 
ATOM     17  O   UNL     1      -1.957  -3.448  -4.224  0.00  0.00    -0.291 OA
ATOM     18  C   UNL     1      -1.616  -1.698  -2.643  0.00  0.00    +0.088 C 
ATOM     19 CL   UNL     1      -3.058  -0.925  -3.211  0.00  0.00    -0.080 Cl
ATOM     20  C   UNL     1      -0.846  -1.188  -1.660  0.00  0.00    -0.001 C 
ATOM     21  C   UNL     1      -1.167   0.136  -0.985  0.00  0.00    +0.112 C 
ENDROOT
BRANCH  14  22
ATOM     22  O   UNL     1       1.871  -3.737  -1.323  0.00  0.00    -0.510 OA
ATOM     23  H   UNL     1       1.910  -4.624  -1.724  0.00  0.00    +0.292 HD
ENDBRANCH  14  22
TORSDOF 1
