REMARK  Name = 
REMARK  3 active torsions:
REMARK  status: ('A' for Active; 'I' for Inactive)
REMARK    1  A    between atoms: O_1  and  C_2
REMARK    2  A    between atoms: C_11  and  O_12
REMARK    3  A    between atoms: C_17  and  O_18
REMARK                            x       y       z     vdW  Elec       q    Type
REMARK                         _______ _______ _______ _____ _____    ______ ____
ROOT
ATOM      1  C   UNL     1      -0.614  -1.420  -1.110  0.00  0.00    +0.095 C 
ATOM      2  C   UNL     1      -1.346  -1.680   0.188  0.00  0.00    +0.074 C 
ATOM      3  C   UNL     1      -0.936  -2.904   1.032  0.00  0.00    +0.012 C 
ATOM      4  C   UNL     1       0.555  -3.195   1.265  0.00  0.00    +0.027 C 
ATOM      5  C   UNL     1       1.469  -2.020   1.147  0.00  0.00    -0.031 C 
ATOM      6  C   UNL     1       1.842  -1.214   2.151  0.00  0.00    -0.028 C 
ATOM      7  C   UNL     1       2.687   0.030   2.007  0.00  0.00    +0.068 C 
ATOM      8  C   UNL     1       3.030   0.497   0.579  0.00  0.00    +0.236 C 
ATOM      9  O   UNL     1       1.874   0.770  -0.228  0.00  0.00    -0.464 OA
ATOM     10  C   UNL     1       1.150   1.892   0.125  0.00  0.00    +0.291 C 
ATOM     11  C   UNL     1      -0.141   2.035  -0.282  0.00  0.00    +0.110 C 
ATOM     12  C   UNL     1      -0.835   3.298   0.169  0.00  0.00    +0.197 C 
ATOM     13  O   UNL     1      -0.293   4.145   0.878  0.00  0.00    -0.287 OA
ATOM     14  C   UNL     1      -2.222   3.519  -0.264  0.00  0.00    +0.098 C 
ATOM     15  C   UNL     1      -2.835   2.622  -1.032  0.00  0.00    +0.139 C 
ATOM     16  C   UNL     1      -2.190   1.397  -1.474  0.00  0.00    +0.091 C 
ATOM     17 CL   UNL     1      -3.173   0.370  -2.500  0.00  0.00    -0.079 Cl
ATOM     18  C   UNL     1      -0.912   1.078  -1.133  0.00  0.00    +0.018 C 
ATOM     19  C   UNL     1      -0.377  -0.200  -1.624  0.00  0.00    +0.051 C 
ENDROOT
BRANCH   1  20
ATOM     20  O   UNL     1      -0.161  -2.521  -1.820  0.00  0.00    -0.511 OA
ATOM     21  H   UNL     1      -0.565  -3.323  -1.450  0.00  0.00    +0.292 HD
ENDBRANCH   1  20
BRANCH  10  22
ATOM     22  O   UNL     1       1.817   2.840   0.889  0.00  0.00    -0.480 OA
ATOM     23  H   UNL     1       1.211   3.588   1.081  0.00  0.00    +0.295 HD
ENDBRANCH  10  22
BRANCH  15  24
ATOM     24  O   UNL     1      -4.140   2.857  -1.427  0.00  0.00    -0.505 OA
ATOM     25  H   UNL     1      -4.421   2.113  -1.993  0.00  0.00    +0.292 HD
ENDBRANCH  15  24
TORSDOF 3
