REMARK  Name = 
REMARK  2 active torsions:
REMARK  status: ('A' for Active; 'I' for Inactive)
REMARK    1  A    between atoms: C_11  and  O_12
REMARK    2  A    between atoms: C_14  and  O_15
REMARK                            x       y       z     vdW  Elec       q    Type
REMARK                         _______ _______ _______ _____ _____    ______ ____
ROOT
ATOM      1  O   UNL     1      -1.586  -0.395  -2.921  0.00  0.00    -0.297 OA
ATOM      2  C   UNL     1      -1.381   0.412  -2.013  0.00  0.00    +0.138 C 
ATOM      3  C   UNL     1      -2.511   0.998  -1.180  0.00  0.00    +0.075 C 
ATOM      4  C   UNL     1      -3.811   0.189  -1.146  0.00  0.00    +0.012 C 
ATOM      5  C   UNL     1      -3.695  -1.324  -0.910  0.00  0.00    +0.027 C 
ATOM      6  C   UNL     1      -2.696  -1.795   0.106  0.00  0.00    -0.031 C 
ATOM      7  C   UNL     1      -2.364  -1.180   1.251  0.00  0.00    -0.028 C 
ATOM      8  C   UNL     1      -1.206  -1.632   2.099  0.00  0.00    +0.068 C 
ATOM      9  C   UNL     1      -0.014  -0.666   1.999  0.00  0.00    +0.236 C 
ATOM     10  O   UNL     1       0.374  -0.369   0.649  0.00  0.00    -0.464 OA
ATOM     11  C   UNL     1       1.040  -1.360  -0.043  0.00  0.00    +0.290 C 
ATOM     12  C   UNL     1       1.406  -1.194  -1.351  0.00  0.00    +0.101 C 
ATOM     13  C   UNL     1       2.154  -2.269  -2.050  0.00  0.00    +0.135 C 
ATOM     14  C   UNL     1       2.850  -2.038  -3.167  0.00  0.00    +0.098 C 
ATOM     15  C   UNL     1       2.857  -0.695  -3.772  0.00  0.00    +0.201 C 
ATOM     16  O   UNL     1       3.658  -0.450  -4.668  0.00  0.00    -0.286 OA
ATOM     17  C   UNL     1       1.838   0.278  -3.278  0.00  0.00    +0.092 C 
ATOM     18 CL   UNL     1       1.638   1.674  -4.289  0.00  0.00    -0.079 Cl
ATOM     19  C   UNL     1       1.115   0.047  -2.155  0.00  0.00    -0.001 C 
ATOM     20  C   UNL     1       0.004   1.001  -1.748  0.00  0.00    +0.112 C 
ENDROOT
BRANCH  11  21
ATOM     21  O   UNL     1       1.353  -2.504   0.675  0.00  0.00    -0.480 OA
ATOM     22  H   UNL     1       1.698  -3.158   0.036  0.00  0.00    +0.295 HD
ENDBRANCH  11  21
BRANCH  13  23
ATOM     23  O   UNL     1       2.120  -3.534  -1.484  0.00  0.00    -0.506 OA
ATOM     24  H   UNL     1       2.561  -4.157  -2.092  0.00  0.00    +0.292 HD
ENDBRANCH  13  23
TORSDOF 2
