REMARK  Name = 
REMARK  3 active torsions:
REMARK  status: ('A' for Active; 'I' for Inactive)
REMARK    1  A    between atoms: O_1  and  C_2
REMARK    2  A    between atoms: C_11  and  O_12
REMARK    3  A    between atoms: C_17  and  O_18
REMARK                            x       y       z     vdW  Elec       q    Type
REMARK                         _______ _______ _______ _____ _____    ______ ____
ROOT
ATOM      1  C   UNL     1      -1.792  -0.169  -0.121  0.00  0.00    +0.095 C 
ATOM      2  C   UNL     1      -2.312  -1.366   0.209  0.00  0.00    +0.014 C 
ATOM      3  C   UNL     1      -1.753  -2.712  -0.182  0.00  0.00    +0.034 C 
ATOM      4  C   UNL     1      -1.218  -3.520   1.011  0.00  0.00    +0.031 C 
ATOM      5  C   UNL     1      -0.289  -2.720   1.877  0.00  0.00    -0.031 C 
ATOM      6  C   UNL     1       1.021  -2.556   1.638  0.00  0.00    -0.028 C 
ATOM      7  C   UNL     1       1.876  -1.618   2.447  0.00  0.00    +0.068 C 
ATOM      8  C   UNL     1       2.347  -0.404   1.639  0.00  0.00    +0.236 C 
ATOM      9  O   UNL     1       1.215   0.372   1.214  0.00  0.00    -0.464 OA
ATOM     10  C   UNL     1       1.571   1.588   0.661  0.00  0.00    +0.290 C 
ATOM     11  C   UNL     1       0.927   2.096  -0.429  0.00  0.00    +0.106 C 
ATOM     12  C   UNL     1       1.382   3.479  -0.854  0.00  0.00    +0.197 C 
ATOM     13  O   UNL     1       2.345   4.056  -0.348  0.00  0.00    -0.287 OA
ATOM     14  C   UNL     1       0.628   4.165  -1.913  0.00  0.00    +0.098 C 
ATOM     15  C   UNL     1      -0.370   3.542  -2.537  0.00  0.00    +0.139 C 
ATOM     16  C   UNL     1      -0.746   2.173  -2.232  0.00  0.00    +0.087 C 
ATOM     17 CL   UNL     1      -2.013   1.505  -3.234  0.00  0.00    -0.079 Cl
ATOM     18  C   UNL     1      -0.154   1.461  -1.239  0.00  0.00    -0.001 C 
ATOM     19  C   UNL     1      -0.558   0.012  -0.993  0.00  0.00    +0.110 C 
ENDROOT
BRANCH   1  20
ATOM     20  O   UNL     1      -2.392   0.998   0.324  0.00  0.00    -0.511 OA
ATOM     21  H   UNL     1      -3.108   0.767   0.939  0.00  0.00    +0.292 HD
ENDBRANCH   1  20
BRANCH  10  22
ATOM     22  O   UNL     1       2.582   2.264   1.332  0.00  0.00    -0.480 OA
ATOM     23  H   UNL     1       2.756   3.120   0.884  0.00  0.00    +0.295 HD
ENDBRANCH  10  22
BRANCH  15  24
ATOM     24  O   UNL     1      -1.069   4.211  -3.526  0.00  0.00    -0.505 OA
ATOM     25  H   UNL     1      -1.772   3.614  -3.845  0.00  0.00    +0.292 HD
ENDBRANCH  15  24
TORSDOF 3
