REMARK  Name = 
REMARK  1 active torsions:
REMARK  status: ('A' for Active; 'I' for Inactive)
REMARK    1  A    between atoms: C_14  and  O_15
REMARK                            x       y       z     vdW  Elec       q    Type
REMARK                         _______ _______ _______ _____ _____    ______ ____
ROOT
ATOM      1  O   UNL     1       1.539  -1.047  -2.734  0.00  0.00    -0.297 OA
ATOM      2  C   UNL     1       0.626  -1.031  -1.905  0.00  0.00    +0.138 C 
ATOM      3  C   UNL     1      -0.792  -1.403  -2.305  0.00  0.00    +0.075 C 
ATOM      4  C   UNL     1      -1.256  -2.786  -1.844  0.00  0.00    +0.012 C 
ATOM      5  C   UNL     1      -1.692  -2.917  -0.374  0.00  0.00    +0.027 C 
ATOM      6  C   UNL     1      -2.621  -1.822   0.078  0.00  0.00    -0.031 C 
ATOM      7  C   UNL     1      -2.373  -1.051   1.149  0.00  0.00    -0.028 C 
ATOM      8  C   UNL     1      -3.149   0.183   1.519  0.00  0.00    +0.068 C 
ATOM      9  C   UNL     1      -2.756   1.395   0.662  0.00  0.00    +0.236 C 
ATOM     10  O   UNL     1      -1.333   1.613   0.726  0.00  0.00    -0.461 OA
ATOM     11  C   UNL     1      -0.718   1.820  -0.468  0.00  0.00    +0.343 C 
ATOM     12  O   UNL     1      -1.243   1.858  -1.571  0.00  0.00    -0.245 OA
ATOM     13  C   UNL     1       0.754   1.889  -0.270  0.00  0.00    +0.102 C 
ATOM     14  C   UNL     1       1.271   3.120  -0.107  0.00  0.00    +0.116 C 
ATOM     15  C   UNL     1       2.740   3.367   0.039  0.00  0.00    +0.154 C 
ATOM     16  C   UNL     1       3.597   2.115   0.014  0.00  0.00    +0.182 C 
ATOM     17  O   UNL     1       4.817   2.212   0.164  0.00  0.00    -0.291 OA
ATOM     18  C   UNL     1       2.935   0.787  -0.178  0.00  0.00    +0.088 C 
ATOM     19 CL   UNL     1       3.993  -0.584  -0.187  0.00  0.00    -0.080 Cl
ATOM     20  C   UNL     1       1.596   0.687  -0.315  0.00  0.00    -0.001 C 
ATOM     21  C   UNL     1       0.890  -0.649  -0.456  0.00  0.00    +0.112 C 
ENDROOT
BRANCH  14  22
ATOM     22  O   UNL     1       0.461   4.243  -0.072  0.00  0.00    -0.510 OA
ATOM     23  H   UNL     1       1.011   5.047  -0.041  0.00  0.00    +0.292 HD
ENDBRANCH  14  22
TORSDOF 1
