REMARK  Name = 
REMARK  2 active torsions:
REMARK  status: ('A' for Active; 'I' for Inactive)
REMARK    1  A    between atoms: C_14  and  O_15
REMARK    2  A    between atoms: C_17  and  O_18
REMARK                            x       y       z     vdW  Elec       q    Type
REMARK                         _______ _______ _______ _____ _____    ______ ____
ROOT
ATOM      1  O   UNL     1       0.016  -2.229  -0.617  0.00  0.00    -0.297 OA
ATOM      2  C   UNL     1       1.188  -1.850  -0.650  0.00  0.00    +0.138 C 
ATOM      3  C   UNL     1       2.257  -2.588   0.138  0.00  0.00    +0.075 C 
ATOM      4  C   UNL     1       2.923  -1.753   1.228  0.00  0.00    +0.012 C 
ATOM      5  C   UNL     1       2.106  -1.608   2.516  0.00  0.00    +0.027 C 
ATOM      6  C   UNL     1       0.788  -0.911   2.345  0.00  0.00    -0.031 C 
ATOM      7  C   UNL     1       0.589   0.392   2.596  0.00  0.00    -0.028 C 
ATOM      8  C   UNL     1      -0.755   1.067   2.496  0.00  0.00    +0.068 C 
ATOM      9  C   UNL     1      -0.797   2.159   1.427  0.00  0.00    +0.236 C 
ATOM     10  O   UNL     1      -0.918   1.558   0.128  0.00  0.00    -0.461 OA
ATOM     11  C   UNL     1       0.118   1.741  -0.720  0.00  0.00    +0.343 C 
ATOM     12  O   UNL     1       1.172   2.316  -0.507  0.00  0.00    -0.245 OA
ATOM     13  C   UNL     1      -0.189   1.042  -1.984  0.00  0.00    +0.105 A 
ATOM     14  C   UNL     1      -1.214   1.553  -2.799  0.00  0.00    +0.135 A 
ATOM     15  C   UNL     1      -1.540   0.928  -3.998  0.00  0.00    +0.093 A 
ATOM     16  C   UNL     1      -0.836  -0.206  -4.380  0.00  0.00    +0.139 A 
ATOM     17  C   UNL     1       0.200  -0.722  -3.587  0.00  0.00    +0.087 A 
ATOM     18 CL   UNL     1       1.023  -2.141  -4.152  0.00  0.00    -0.079 Cl
ATOM     19  C   UNL     1       0.553  -0.098  -2.375  0.00  0.00    -0.001 A 
ATOM     20  C   UNL     1       1.645  -0.669  -1.494  0.00  0.00    +0.112 C 
ENDROOT
BRANCH  14  21
ATOM     21  O   UNL     1      -1.887   2.684  -2.427  0.00  0.00    -0.506 OA
ATOM     22  H   UNL     1      -2.592   2.869  -3.070  0.00  0.00    +0.292 HD
ENDBRANCH  14  21
BRANCH  16  23
ATOM     23  O   UNL     1      -1.201  -0.787  -5.566  0.00  0.00    -0.505 OA
ATOM     24  H   UNL     1      -0.655  -1.589  -5.676  0.00  0.00    +0.292 HD
ENDBRANCH  16  23
TORSDOF 2
