REMARK  Name = 
REMARK  2 active torsions:
REMARK  status: ('A' for Active; 'I' for Inactive)
REMARK    1  A    between atoms: C_11  and  O_12
REMARK    2  A    between atoms: C_17  and  O_18
REMARK                            x       y       z     vdW  Elec       q    Type
REMARK                         _______ _______ _______ _____ _____    ______ ____
ROOT
ATOM      1  O   UNL     1       0.843   0.455   0.781  0.00  0.00    -0.297 OA
ATOM      2  C   UNL     1       0.566   0.972  -0.302  0.00  0.00    +0.138 C 
ATOM      3  C   UNL     1       1.647   1.397  -1.291  0.00  0.00    +0.075 C 
ATOM      4  C   UNL     1       3.007   0.733  -1.053  0.00  0.00    +0.012 C 
ATOM      5  C   UNL     1       3.179  -0.613  -1.770  0.00  0.00    +0.027 C 
ATOM      6  C   UNL     1       2.111  -1.608  -1.430  0.00  0.00    -0.031 C 
ATOM      7  C   UNL     1       1.270  -2.134  -2.334  0.00  0.00    -0.028 C 
ATOM      8  C   UNL     1       0.141  -3.067  -1.982  0.00  0.00    +0.068 C 
ATOM      9  C   UNL     1      -1.218  -2.451  -2.329  0.00  0.00    +0.236 C 
ATOM     10  O   UNL     1      -1.495  -1.294  -1.530  0.00  0.00    -0.464 OA
ATOM     11  C   UNL     1      -2.014  -1.526  -0.270  0.00  0.00    +0.290 C 
ATOM     12  C   UNL     1      -2.218  -0.489   0.589  0.00  0.00    +0.106 C 
ATOM     13  C   UNL     1      -2.900  -0.848   1.887  0.00  0.00    +0.197 C 
ATOM     14  O   UNL     1      -3.054  -2.007   2.272  0.00  0.00    -0.287 OA
ATOM     15  C   UNL     1      -3.458   0.250   2.696  0.00  0.00    +0.098 C 
ATOM     16  C   UNL     1      -3.220   1.519   2.357  0.00  0.00    +0.139 C 
ATOM     17  C   UNL     1      -2.360   1.876   1.236  0.00  0.00    +0.087 C 
ATOM     18 CL   UNL     1      -1.948   3.567   1.094  0.00  0.00    -0.079 Cl
ATOM     19  C   UNL     1      -1.862   0.944   0.384  0.00  0.00    -0.001 C 
ATOM     20  C   UNL     1      -0.869   1.321  -0.706  0.00  0.00    +0.112 C 
ENDROOT
BRANCH  11  21
ATOM     21  O   UNL     1      -2.349  -2.838   0.031  0.00  0.00    -0.480 OA
ATOM     22  H   UNL     1      -2.631  -2.891   0.971  0.00  0.00    +0.295 HD
ENDBRANCH  11  21
BRANCH  16  23
ATOM     23  O   UNL     1      -3.754   2.569   3.079  0.00  0.00    -0.505 OA
ATOM     24  H   UNL     1      -4.269   2.221   3.827  0.00  0.00    +0.292 HD
ENDBRANCH  16  23
TORSDOF 2
