REMARK  Name = 
REMARK  3 active torsions:
REMARK  status: ('A' for Active; 'I' for Inactive)
REMARK    1  A    between atoms: O_1  and  C_2
REMARK    2  A    between atoms: C_14  and  O_15
REMARK    3  A    between atoms: C_17  and  O_18
REMARK                            x       y       z     vdW  Elec       q    Type
REMARK                         _______ _______ _______ _____ _____    ______ ____
ROOT
ATOM      1  C   UNL     1      -0.880  -1.767  -0.465  0.00  0.00    +0.095 C 
ATOM      2  C   UNL     1      -0.279  -1.913   0.914  0.00  0.00    +0.074 C 
ATOM      3  C   UNL     1      -0.557  -0.774   1.911  0.00  0.00    +0.012 C 
ATOM      4  C   UNL     1      -2.029  -0.515   2.270  0.00  0.00    +0.027 C 
ATOM      5  C   UNL     1      -2.814   0.071   1.135  0.00  0.00    -0.031 C 
ATOM      6  C   UNL     1      -2.786   1.366   0.785  0.00  0.00    -0.028 C 
ATOM      7  C   UNL     1      -3.354   1.864  -0.514  0.00  0.00    +0.068 C 
ATOM      8  C   UNL     1      -2.287   2.519  -1.402  0.00  0.00    +0.236 C 
ATOM      9  O   UNL     1      -1.167   1.637  -1.628  0.00  0.00    -0.461 OA
ATOM     10  C   UNL     1      -0.081   1.871  -0.852  0.00  0.00    +0.343 C 
ATOM     11  O   UNL     1       0.049   2.785  -0.045  0.00  0.00    -0.245 OA
ATOM     12  C   UNL     1       1.063   0.978  -1.163  0.00  0.00    +0.109 A 
ATOM     13  C   UNL     1       2.347   1.558  -1.088  0.00  0.00    +0.135 A 
ATOM     14  C   UNL     1       3.492   0.834  -1.407  0.00  0.00    +0.093 A 
ATOM     15  C   UNL     1       3.370  -0.496  -1.786  0.00  0.00    +0.139 A 
ATOM     16  C   UNL     1       2.110  -1.112  -1.832  0.00  0.00    +0.091 A 
ATOM     17 CL   UNL     1       2.020  -2.783  -2.313  0.00  0.00    -0.079 Cl
ATOM     18  C   UNL     1       0.938  -0.386  -1.502  0.00  0.00    +0.017 A 
ATOM     19  C   UNL     1      -0.359  -1.087  -1.503  0.00  0.00    +0.051 C 
ENDROOT
BRANCH   1  20
ATOM     20  O   UNL     1      -2.056  -2.484  -0.624  0.00  0.00    -0.511 OA
ATOM     21  H   UNL     1      -2.346  -2.416  -1.550  0.00  0.00    +0.292 HD
ENDBRANCH   1  20
BRANCH  13  22
ATOM     22  O   UNL     1       2.571   2.857  -0.703  0.00  0.00    -0.506 OA
ATOM     23  H   UNL     1       1.754   3.210  -0.284  0.00  0.00    +0.292 HD
ENDBRANCH  13  22
BRANCH  15  24
ATOM     24  O   UNL     1       4.495  -1.208  -2.108  0.00  0.00    -0.505 OA
ATOM     25  H   UNL     1       5.279  -0.641  -2.017  0.00  0.00    +0.292 HD
ENDBRANCH  15  24
TORSDOF 3
