REMARK  Name = 
REMARK  2 active torsions:
REMARK  status: ('A' for Active; 'I' for Inactive)
REMARK    1  A    between atoms: C_11  and  O_12
REMARK    2  A    between atoms: C_17  and  O_18
REMARK                            x       y       z     vdW  Elec       q    Type
REMARK                         _______ _______ _______ _____ _____    ______ ____
ROOT
ATOM      1  O   UNL     1       0.521  -2.605  -2.190  0.00  0.00    -0.297 OA
ATOM      2  C   UNL     1       0.735  -1.979  -1.147  0.00  0.00    +0.138 C 
ATOM      3  C   UNL     1       0.477  -2.634   0.194  0.00  0.00    +0.075 C 
ATOM      4  C   UNL     1       1.738  -3.071   0.951  0.00  0.00    +0.012 C 
ATOM      5  C   UNL     1       2.466  -1.990   1.769  0.00  0.00    +0.027 C 
ATOM      6  C   UNL     1       1.507  -1.134   2.542  0.00  0.00    -0.031 C 
ATOM      7  C   UNL     1       1.452   0.201   2.419  0.00  0.00    -0.028 C 
ATOM      8  C   UNL     1       0.247   1.002   2.831  0.00  0.00    +0.068 C 
ATOM      9  C   UNL     1      -0.422   1.655   1.607  0.00  0.00    +0.236 C 
ATOM     10  O   UNL     1      -0.626   0.671   0.574  0.00  0.00    -0.464 OA
ATOM     11  C   UNL     1      -1.221   1.211  -0.549  0.00  0.00    +0.290 C 
ATOM     12  C   UNL     1      -0.702   1.033  -1.798  0.00  0.00    +0.106 C 
ATOM     13  C   UNL     1      -1.477   1.716  -2.909  0.00  0.00    +0.197 C 
ATOM     14  O   UNL     1      -2.572   2.248  -2.733  0.00  0.00    -0.287 OA
ATOM     15  C   UNL     1      -0.874   1.763  -4.249  0.00  0.00    +0.098 C 
ATOM     16  C   UNL     1       0.283   1.148  -4.485  0.00  0.00    +0.139 C 
ATOM     17  C   UNL     1       0.988   0.388  -3.467  0.00  0.00    +0.087 C 
ATOM     18 CL   UNL     1       2.442  -0.414  -4.008  0.00  0.00    -0.079 Cl
ATOM     19  C   UNL     1       0.540   0.296  -2.189  0.00  0.00    -0.001 C 
ATOM     20  C   UNL     1       1.283  -0.560  -1.177  0.00  0.00    +0.112 C 
ENDROOT
BRANCH  11  21
ATOM     21  O   UNL     1      -2.385   1.920  -0.293  0.00  0.00    -0.480 OA
ATOM     22  H   UNL     1      -2.799   2.187  -1.143  0.00  0.00    +0.295 HD
ENDBRANCH  11  21
BRANCH  16  23
ATOM     23  O   UNL     1       0.829   1.208  -5.755  0.00  0.00    -0.505 OA
ATOM     24  H   UNL     1       1.616   0.631  -5.770  0.00  0.00    +0.292 HD
ENDBRANCH  16  23
TORSDOF 2
