REMARK  Name = 
REMARK  1 active torsions:
REMARK  status: ('A' for Active; 'I' for Inactive)
REMARK    1  A    between atoms: C_14  and  O_15
REMARK                            x       y       z     vdW  Elec       q    Type
REMARK                         _______ _______ _______ _____ _____    ______ ____
ROOT
ATOM      1  O   UNL     1       2.244   1.769   1.144  0.00  0.00    -0.297 OA
ATOM      2  C   UNL     1       1.117   1.413   0.779  0.00  0.00    +0.138 C 
ATOM      3  C   UNL     1       0.326   2.304  -0.161  0.00  0.00    +0.075 C 
ATOM      4  C   UNL     1       0.128   1.795  -1.584  0.00  0.00    +0.012 C 
ATOM      5  C   UNL     1       1.419   1.447  -2.341  0.00  0.00    +0.027 C 
ATOM      6  C   UNL     1       1.813   0.022  -2.086  0.00  0.00    -0.031 C 
ATOM      7  C   UNL     1       1.290  -1.003  -2.776  0.00  0.00    -0.028 C 
ATOM      8  C   UNL     1       1.430  -2.443  -2.362  0.00  0.00    +0.068 C 
ATOM      9  C   UNL     1       0.049  -3.088  -2.167  0.00  0.00    +0.236 C 
ATOM     10  O   UNL     1      -0.822  -2.249  -1.385  0.00  0.00    -0.461 OA
ATOM     11  C   UNL     1      -0.663  -2.313  -0.042  0.00  0.00    +0.343 C 
ATOM     12  O   UNL     1       0.123  -3.022   0.568  0.00  0.00    -0.245 OA
ATOM     13  C   UNL     1      -1.515  -1.277   0.614  0.00  0.00    +0.102 C 
ATOM     14  C   UNL     1      -2.846  -1.484   0.590  0.00  0.00    +0.116 C 
ATOM     15  C   UNL     1      -3.817  -0.591   1.299  0.00  0.00    +0.154 C 
ATOM     16  C   UNL     1      -3.168   0.412   2.232  0.00  0.00    +0.182 C 
ATOM     17  O   UNL     1      -3.868   1.077   2.997  0.00  0.00    -0.291 OA
ATOM     18  C   UNL     1      -1.686   0.606   2.163  0.00  0.00    +0.088 C 
ATOM     19 CL   UNL     1      -1.041   1.842   3.190  0.00  0.00    -0.080 Cl
ATOM     20  C   UNL     1      -0.919  -0.148   1.347  0.00  0.00    -0.001 C 
ATOM     21  C   UNL     1       0.582   0.049   1.228  0.00  0.00    +0.112 C 
ENDROOT
BRANCH  14  22
ATOM     22  O   UNL     1      -3.397  -2.578  -0.057  0.00  0.00    -0.510 OA
ATOM     23  H   UNL     1      -4.367  -2.569   0.034  0.00  0.00    +0.292 HD
ENDBRANCH  14  22
TORSDOF 1
