REMARK  Name = 
REMARK  2 active torsions:
REMARK  status: ('A' for Active; 'I' for Inactive)
REMARK    1  A    between atoms: C_11  and  O_12
REMARK    2  A    between atoms: C_14  and  O_15
REMARK                            x       y       z     vdW  Elec       q    Type
REMARK                         _______ _______ _______ _____ _____    ______ ____
ROOT
ATOM      1  O   UNL     1      -1.266   1.758   1.568  0.00  0.00    -0.297 OA
ATOM      2  C   UNL     1      -1.763   0.911   0.816  0.00  0.00    +0.138 C 
ATOM      3  C   UNL     1      -2.584   1.370  -0.381  0.00  0.00    +0.075 C 
ATOM      4  C   UNL     1      -1.917   1.258  -1.750  0.00  0.00    +0.012 C 
ATOM      5  C   UNL     1      -0.855   2.325  -2.039  0.00  0.00    +0.027 C 
ATOM      6  C   UNL     1       0.320   2.208  -1.119  0.00  0.00    -0.031 C 
ATOM      7  C   UNL     1       1.373   1.412  -1.351  0.00  0.00    -0.028 C 
ATOM      8  C   UNL     1       2.483   1.146  -0.371  0.00  0.00    +0.068 C 
ATOM      9  C   UNL     1       2.071   1.058   1.111  0.00  0.00    +0.236 C 
ATOM     10  O   UNL     1       1.052   0.083   1.405  0.00  0.00    -0.464 OA
ATOM     11  C   UNL     1       1.309  -1.199   0.995  0.00  0.00    +0.290 C 
ATOM     12  C   UNL     1       0.380  -1.963   0.355  0.00  0.00    +0.101 C 
ATOM     13  C   UNL     1       0.771  -3.282  -0.205  0.00  0.00    +0.135 C 
ATOM     14  C   UNL     1       0.019  -3.913  -1.109  0.00  0.00    +0.098 C 
ATOM     15  C   UNL     1      -1.266  -3.343  -1.536  0.00  0.00    +0.201 C 
ATOM     16  O   UNL     1      -1.849  -3.814  -2.506  0.00  0.00    -0.286 OA
ATOM     17  C   UNL     1      -1.821  -2.235  -0.700  0.00  0.00    +0.092 C 
ATOM     18 CL   UNL     1      -3.522  -1.972  -0.919  0.00  0.00    -0.079 Cl
ATOM     19  C   UNL     1      -1.060  -1.556   0.193  0.00  0.00    -0.001 C 
ATOM     20  C   UNL     1      -1.695  -0.579   1.174  0.00  0.00    +0.112 C 
ENDROOT
BRANCH  11  21
ATOM     21  O   UNL     1       2.565  -1.704   1.289  0.00  0.00    -0.480 OA
ATOM     22  H   UNL     1       2.857  -1.196   2.070  0.00  0.00    +0.295 HD
ENDBRANCH  11  21
BRANCH  13  23
ATOM     23  O   UNL     1       1.968  -3.869   0.161  0.00  0.00    -0.506 OA
ATOM     24  H   UNL     1       2.476  -3.212   0.678  0.00  0.00    +0.292 HD
ENDBRANCH  13  23
TORSDOF 2
