REMARK  Name = 
REMARK  3 active torsions:
REMARK  status: ('A' for Active; 'I' for Inactive)
REMARK    1  A    between atoms: O_1  and  C_2
REMARK    2  A    between atoms: C_14  and  O_15
REMARK    3  A    between atoms: C_17  and  O_18
REMARK                            x       y       z     vdW  Elec       q    Type
REMARK                         _______ _______ _______ _____ _____    ______ ____
ROOT
ATOM      1  C   UNL     1      -0.498  -0.720  -1.476  0.00  0.00    +0.095 C 
ATOM      2  C   UNL     1      -1.402  -1.513  -0.565  0.00  0.00    +0.074 C 
ATOM      3  C   UNL     1      -1.019  -2.976  -0.255  0.00  0.00    +0.012 C 
ATOM      4  C   UNL     1       0.464  -3.367  -0.167  0.00  0.00    +0.027 C 
ATOM      5  C   UNL     1       1.330  -2.432   0.622  0.00  0.00    -0.031 C 
ATOM      6  C   UNL     1       2.407  -1.821   0.099  0.00  0.00    -0.028 C 
ATOM      7  C   UNL     1       3.289  -0.795   0.760  0.00  0.00    +0.068 C 
ATOM      8  C   UNL     1       2.648   0.086   1.834  0.00  0.00    +0.236 C 
ATOM      9  O   UNL     1       1.662   0.946   1.236  0.00  0.00    -0.461 OA
ATOM     10  C   UNL     1       0.382   0.715   1.608  0.00  0.00    +0.343 C 
ATOM     11  O   UNL     1      -0.033  -0.113   2.403  0.00  0.00    -0.245 OA
ATOM     12  C   UNL     1      -0.495   1.679   0.928  0.00  0.00    +0.109 A 
ATOM     13  C   UNL     1      -1.078   2.684   1.724  0.00  0.00    +0.135 A 
ATOM     14  C   UNL     1      -1.968   3.600   1.175  0.00  0.00    +0.093 A 
ATOM     15  C   UNL     1      -2.275   3.511  -0.174  0.00  0.00    +0.139 A 
ATOM     16  C   UNL     1      -1.700   2.520  -0.985  0.00  0.00    +0.091 A 
ATOM     17 CL   UNL     1      -2.155   2.501  -2.665  0.00  0.00    -0.079 Cl
ATOM     18  C   UNL     1      -0.794   1.580  -0.447  0.00  0.00    +0.017 A 
ATOM     19  C   UNL     1      -0.193   0.583  -1.357  0.00  0.00    +0.051 C 
ENDROOT
BRANCH   1  20
ATOM     20  O   UNL     1       0.032  -1.391  -2.570  0.00  0.00    -0.511 OA
ATOM     21  H   UNL     1      -0.427  -2.243  -2.665  0.00  0.00    +0.292 HD
ENDBRANCH   1  20
BRANCH  13  22
ATOM     22  O   UNL     1      -0.755   2.781   3.050  0.00  0.00    -0.506 OA
ATOM     23  H   UNL     1      -1.308   3.457   3.477  0.00  0.00    +0.292 HD
ENDBRANCH  13  22
BRANCH  15  24
ATOM     24  O   UNL     1      -3.158   4.435  -0.668  0.00  0.00    -0.505 OA
ATOM     25  H   UNL     1      -3.273   4.248  -1.620  0.00  0.00    +0.292 HD
ENDBRANCH  15  24
TORSDOF 3
