REMARK  Name = 
REMARK  2 active torsions:
REMARK  status: ('A' for Active; 'I' for Inactive)
REMARK    1  A    between atoms: C_14  and  O_15
REMARK    2  A    between atoms: C_17  and  O_18
REMARK                            x       y       z     vdW  Elec       q    Type
REMARK                         _______ _______ _______ _____ _____    ______ ____
ROOT
ATOM      1  O   UNL     1       0.223  -1.265  -1.391  0.00  0.00    -0.297 OA
ATOM      2  C   UNL     1      -0.650  -1.374  -0.527  0.00  0.00    +0.138 C 
ATOM      3  C   UNL     1      -1.136  -2.748  -0.092  0.00  0.00    +0.075 C 
ATOM      4  C   UNL     1      -0.914  -3.057   1.389  0.00  0.00    +0.012 C 
ATOM      5  C   UNL     1       0.517  -3.477   1.748  0.00  0.00    +0.027 C 
ATOM      6  C   UNL     1       1.540  -2.438   1.406  0.00  0.00    -0.031 C 
ATOM      7  C   UNL     1       1.965  -1.486   2.251  0.00  0.00    -0.028 C 
ATOM      8  C   UNL     1       2.930  -0.405   1.842  0.00  0.00    +0.068 C 
ATOM      9  C   UNL     1       2.264   0.971   1.823  0.00  0.00    +0.236 C 
ATOM     10  O   UNL     1       1.260   1.003   0.794  0.00  0.00    -0.461 OA
ATOM     11  C   UNL     1       0.602   2.176   0.695  0.00  0.00    +0.343 C 
ATOM     12  O   UNL     1       0.818   3.185   1.353  0.00  0.00    -0.245 OA
ATOM     13  C   UNL     1      -0.372   2.171  -0.424  0.00  0.00    +0.105 A 
ATOM     14  C   UNL     1      -0.425   3.347  -1.199  0.00  0.00    +0.135 A 
ATOM     15  C   UNL     1      -1.265   3.448  -2.303  0.00  0.00    +0.093 A 
ATOM     16  C   UNL     1      -2.092   2.380  -2.626  0.00  0.00    +0.139 A 
ATOM     17  C   UNL     1      -2.093   1.214  -1.843  0.00  0.00    +0.087 A 
ATOM     18 CL   UNL     1      -3.188  -0.068  -2.274  0.00  0.00    -0.079 Cl
ATOM     19  C   UNL     1      -1.241   1.091  -0.718  0.00  0.00    -0.001 A 
ATOM     20  C   UNL     1      -1.299  -0.165   0.133  0.00  0.00    +0.112 C 
ENDROOT
BRANCH  14  21
ATOM     21  O   UNL     1       0.323   4.466  -0.930  0.00  0.00    -0.506 OA
ATOM     22  H   UNL     1       0.687   4.397  -0.020  0.00  0.00    +0.292 HD
ENDBRANCH  14  21
BRANCH  16  23
ATOM     23  O   UNL     1      -2.926   2.481  -3.707  0.00  0.00    -0.505 OA
ATOM     24  H   UNL     1      -2.753   3.316  -4.174  0.00  0.00    +0.292 HD
ENDBRANCH  16  23
TORSDOF 2
