REMARK  Name = 
REMARK  3 active torsions:
REMARK  status: ('A' for Active; 'I' for Inactive)
REMARK    1  A    between atoms: O_1  and  C_2
REMARK    2  A    between atoms: C_14  and  O_15
REMARK    3  A    between atoms: C_17  and  O_18
REMARK                            x       y       z     vdW  Elec       q    Type
REMARK                         _______ _______ _______ _____ _____    ______ ____
ROOT
ATOM      1  C   UNL     1       0.243  -1.040  -2.117  0.00  0.00    +0.095 C 
ATOM      2  C   UNL     1      -0.658  -2.029  -2.256  0.00  0.00    +0.014 C 
ATOM      3  C   UNL     1      -1.350  -2.986  -1.315  0.00  0.00    +0.034 C 
ATOM      4  C   UNL     1      -1.204  -2.924   0.210  0.00  0.00    +0.031 C 
ATOM      5  C   UNL     1      -1.935  -1.770   0.839  0.00  0.00    -0.031 C 
ATOM      6  C   UNL     1      -1.615  -1.270   2.043  0.00  0.00    -0.028 C 
ATOM      7  C   UNL     1      -2.218  -0.040   2.674  0.00  0.00    +0.068 C 
ATOM      8  C   UNL     1      -2.521   1.118   1.718  0.00  0.00    +0.236 C 
ATOM      9  O   UNL     1      -1.290   1.583   1.137  0.00  0.00    -0.461 OA
ATOM     10  C   UNL     1      -1.192   1.500  -0.212  0.00  0.00    +0.343 C 
ATOM     11  O   UNL     1      -2.029   1.104  -1.004  0.00  0.00    -0.245 OA
ATOM     12  C   UNL     1       0.169   1.929  -0.580  0.00  0.00    +0.105 A 
ATOM     13  C   UNL     1       0.430   3.308  -0.638  0.00  0.00    +0.135 A 
ATOM     14  C   UNL     1       1.694   3.770  -0.985  0.00  0.00    +0.093 A 
ATOM     15  C   UNL     1       2.691   2.847  -1.278  0.00  0.00    +0.139 A 
ATOM     16  C   UNL     1       2.447   1.465  -1.228  0.00  0.00    +0.087 A 
ATOM     17 CL   UNL     1       3.768   0.408  -1.615  0.00  0.00    -0.079 Cl
ATOM     18  C   UNL     1       1.176   0.976  -0.872  0.00  0.00    -0.001 A 
ATOM     19  C   UNL     1       0.872  -0.515  -0.845  0.00  0.00    +0.110 C 
ENDROOT
BRANCH   1  20
ATOM     20  O   UNL     1       0.701  -0.390  -3.261  0.00  0.00    -0.511 OA
ATOM     21  H   UNL     1       0.153  -0.654  -4.019  0.00  0.00    +0.292 HD
ENDBRANCH   1  20
BRANCH  13  22
ATOM     22  O   UNL     1      -0.562   4.206  -0.358  0.00  0.00    -0.506 OA
ATOM     23  H   UNL     1      -0.227   5.109  -0.486  0.00  0.00    +0.292 HD
ENDBRANCH  13  22
BRANCH  15  24
ATOM     24  O   UNL     1       3.917   3.355  -1.619  0.00  0.00    -0.505 OA
ATOM     25  H   UNL     1       4.492   2.594  -1.829  0.00  0.00    +0.292 HD
ENDBRANCH  15  24
TORSDOF 3
