REMARK  Name = 
REMARK  3 active torsions:
REMARK  status: ('A' for Active; 'I' for Inactive)
REMARK    1  A    between atoms: O_1  and  C_2
REMARK    2  A    between atoms: C_14  and  O_15
REMARK    3  A    between atoms: C_17  and  O_18
REMARK                            x       y       z     vdW  Elec       q    Type
REMARK                         _______ _______ _______ _____ _____    ______ ____
ROOT
ATOM      1  C   UNL     1      -0.841  -2.379  -2.051  0.00  0.00    +0.095 C 
ATOM      2  C   UNL     1       0.411  -3.035  -1.523  0.00  0.00    +0.074 C 
ATOM      3  C   UNL     1       0.254  -3.724  -0.155  0.00  0.00    +0.012 C 
ATOM      4  C   UNL     1       0.629  -2.845   1.043  0.00  0.00    +0.027 C 
ATOM      5  C   UNL     1      -0.260  -1.696   1.417  0.00  0.00    -0.031 C 
ATOM      6  C   UNL     1      -1.565  -1.530   1.146  0.00  0.00    -0.028 C 
ATOM      7  C   UNL     1      -2.319  -0.290   1.554  0.00  0.00    +0.068 C 
ATOM      8  C   UNL     1      -2.825   0.561   0.377  0.00  0.00    +0.236 C 
ATOM      9  O   UNL     1      -1.919   0.666  -0.736  0.00  0.00    -0.461 OA
ATOM     10  C   UNL     1      -0.677   1.145  -0.484  0.00  0.00    +0.343 C 
ATOM     11  O   UNL     1      -0.320   1.632   0.578  0.00  0.00    -0.245 OA
ATOM     12  C   UNL     1       0.204   0.993  -1.686  0.00  0.00    +0.109 A 
ATOM     13  C   UNL     1       1.208   1.966  -1.884  0.00  0.00    +0.135 A 
ATOM     14  C   UNL     1       2.119   1.868  -2.934  0.00  0.00    +0.093 A 
ATOM     15  C   UNL     1       2.028   0.802  -3.813  0.00  0.00    +0.139 A 
ATOM     16  C   UNL     1       1.032  -0.170  -3.664  0.00  0.00    +0.091 A 
ATOM     17 CL   UNL     1       0.967  -1.433  -4.858  0.00  0.00    -0.079 Cl
ATOM     18  C   UNL     1       0.107  -0.097  -2.596  0.00  0.00    +0.017 A 
ATOM     19  C   UNL     1      -0.956  -1.119  -2.503  0.00  0.00    +0.051 C 
ENDROOT
BRANCH   1  20
ATOM     20  O   UNL     1      -1.933  -3.232  -2.091  0.00  0.00    -0.511 OA
ATOM     21  H   UNL     1      -2.698  -2.755  -2.455  0.00  0.00    +0.292 HD
ENDBRANCH   1  20
BRANCH  13  22
ATOM     22  O   UNL     1       1.285   3.064  -1.071  0.00  0.00    -0.506 OA
ATOM     23  H   UNL     1       2.109   3.552  -1.236  0.00  0.00    +0.292 HD
ENDBRANCH  13  22
BRANCH  15  24
ATOM     24  O   UNL     1       2.941   0.761  -4.832  0.00  0.00    -0.505 OA
ATOM     25  H   UNL     1       2.751  -0.035  -5.365  0.00  0.00    +0.292 HD
ENDBRANCH  15  24
TORSDOF 3
