REMARK  Name = 
REMARK  1 active torsions:
REMARK  status: ('A' for Active; 'I' for Inactive)
REMARK    1  A    between atoms: C_14  and  O_15
REMARK                            x       y       z     vdW  Elec       q    Type
REMARK                         _______ _______ _______ _____ _____    ______ ____
ROOT
ATOM      1  O   UNL     1       0.134  -2.199  -0.685  0.00  0.00    -0.297 OA
ATOM      2  C   UNL     1       1.303  -1.809  -0.643  0.00  0.00    +0.138 C 
ATOM      3  C   UNL     1       2.331  -2.536   0.207  0.00  0.00    +0.075 C 
ATOM      4  C   UNL     1       2.917  -1.691   1.335  0.00  0.00    +0.012 C 
ATOM      5  C   UNL     1       2.038  -1.598   2.587  0.00  0.00    +0.027 C 
ATOM      6  C   UNL     1       0.689  -0.986   2.354  0.00  0.00    -0.031 C 
ATOM      7  C   UNL     1       0.392   0.301   2.595  0.00  0.00    -0.028 C 
ATOM      8  C   UNL     1      -0.984   0.886   2.418  0.00  0.00    +0.068 C 
ATOM      9  C   UNL     1      -1.037   1.958   1.330  0.00  0.00    +0.236 C 
ATOM     10  O   UNL     1      -1.024   1.333   0.037  0.00  0.00    -0.461 OA
ATOM     11  C   UNL     1       0.014   1.643  -0.775  0.00  0.00    +0.343 C 
ATOM     12  O   UNL     1       0.979   2.344  -0.508  0.00  0.00    -0.245 OA
ATOM     13  C   UNL     1      -0.144   0.932  -2.075  0.00  0.00    +0.102 C 
ATOM     14  C   UNL     1      -1.129   1.364  -2.885  0.00  0.00    +0.116 C 
ATOM     15  C   UNL     1      -1.397   0.761  -4.230  0.00  0.00    +0.154 C 
ATOM     16  C   UNL     1      -0.390  -0.288  -4.659  0.00  0.00    +0.182 C 
ATOM     17  O   UNL     1      -0.451  -0.765  -5.794  0.00  0.00    -0.291 OA
ATOM     18  C   UNL     1       0.653  -0.730  -3.683  0.00  0.00    +0.088 C 
ATOM     19 CL   UNL     1       1.678  -2.024  -4.210  0.00  0.00    -0.080 Cl
ATOM     20  C   UNL     1       0.759  -0.156  -2.466  0.00  0.00    -0.001 C 
ATOM     21  C   UNL     1       1.798  -0.613  -1.455  0.00  0.00    +0.112 C 
ENDROOT
BRANCH  14  22
ATOM     22  O   UNL     1      -1.949   2.423  -2.529  0.00  0.00    -0.510 OA
ATOM     23  H   UNL     1      -2.638   2.551  -3.206  0.00  0.00    +0.292 HD
ENDBRANCH  14  22
TORSDOF 1
