REMARK  Name = 
REMARK  2 active torsions:
REMARK  status: ('A' for Active; 'I' for Inactive)
REMARK    1  A    between atoms: C_11  and  O_12
REMARK    2  A    between atoms: C_17  and  O_18
REMARK                            x       y       z     vdW  Elec       q    Type
REMARK                         _______ _______ _______ _____ _____    ______ ____
ROOT
ATOM      1  O   UNL     1       0.357  -2.400  -1.879  0.00  0.00    -0.297 OA
ATOM      2  C   UNL     1      -0.022  -1.493  -1.131  0.00  0.00    +0.138 C 
ATOM      3  C   UNL     1      -1.044  -1.755  -0.043  0.00  0.00    +0.075 C 
ATOM      4  C   UNL     1      -0.928  -3.165   0.553  0.00  0.00    +0.012 C 
ATOM      5  C   UNL     1       0.428  -3.484   1.204  0.00  0.00    +0.027 C 
ATOM      6  C   UNL     1       0.822  -2.436   2.201  0.00  0.00    -0.031 C 
ATOM      7  C   UNL     1       1.884  -1.628   2.053  0.00  0.00    -0.028 C 
ATOM      8  C   UNL     1       2.121  -0.431   2.935  0.00  0.00    +0.068 C 
ATOM      9  C   UNL     1       1.947   0.886   2.167  0.00  0.00    +0.236 C 
ATOM     10  O   UNL     1       0.700   0.853   1.458  0.00  0.00    -0.464 OA
ATOM     11  C   UNL     1       0.296   2.070   0.953  0.00  0.00    +0.290 C 
ATOM     12  C   UNL     1      -0.307   2.144  -0.263  0.00  0.00    +0.106 C 
ATOM     13  C   UNL     1      -0.931   3.479  -0.594  0.00  0.00    +0.197 C 
ATOM     14  O   UNL     1      -0.628   4.520  -0.016  0.00  0.00    -0.287 OA
ATOM     15  C   UNL     1      -1.989   3.486  -1.619  0.00  0.00    +0.098 C 
ATOM     16  C   UNL     1      -2.200   2.400  -2.363  0.00  0.00    +0.139 C 
ATOM     17  C   UNL     1      -1.366   1.211  -2.260  0.00  0.00    +0.087 C 
ATOM     18 CL   UNL     1      -1.562   0.037  -3.531  0.00  0.00    -0.079 Cl
ATOM     19  C   UNL     1      -0.452   1.059  -1.271  0.00  0.00    -0.001 C 
ATOM     20  C   UNL     1       0.548  -0.085  -1.291  0.00  0.00    +0.112 C 
ENDROOT
BRANCH  11  21
ATOM     21  O   UNL     1       0.434   3.151   1.807  0.00  0.00    -0.480 OA
ATOM     22  H   UNL     1       0.127   3.967   1.353  0.00  0.00    +0.295 HD
ENDBRANCH  11  21
BRANCH  16  23
ATOM     23  O   UNL     1      -3.204   2.415  -3.313  0.00  0.00    -0.505 OA
ATOM     24  H   UNL     1      -3.169   1.573  -3.806  0.00  0.00    +0.292 HD
ENDBRANCH  16  23
TORSDOF 2
