REMARK  Name = 
REMARK  3 active torsions:
REMARK  status: ('A' for Active; 'I' for Inactive)
REMARK    1  A    between atoms: O_1  and  C_2
REMARK    2  A    between atoms: C_11  and  O_12
REMARK    3  A    between atoms: C_17  and  O_18
REMARK                            x       y       z     vdW  Elec       q    Type
REMARK                         _______ _______ _______ _____ _____    ______ ____
ROOT
ATOM      1  C   UNL     1      -0.978  -0.959   1.562  0.00  0.00    +0.095 C 
ATOM      2  C   UNL     1      -2.130  -1.290   0.641  0.00  0.00    +0.074 C 
ATOM      3  C   UNL     1      -3.096  -0.130   0.348  0.00  0.00    +0.012 C 
ATOM      4  C   UNL     1      -2.816   0.599  -0.972  0.00  0.00    +0.027 C 
ATOM      5  C   UNL     1      -1.612   1.490  -1.062  0.00  0.00    -0.031 C 
ATOM      6  C   UNL     1      -0.996   2.133  -0.059  0.00  0.00    -0.028 C 
ATOM      7  C   UNL     1       0.229   2.988  -0.267  0.00  0.00    +0.068 C 
ATOM      8  C   UNL     1       1.418   2.578   0.614  0.00  0.00    +0.236 C 
ATOM      9  O   UNL     1       1.695   1.175   0.618  0.00  0.00    -0.464 OA
ATOM     10  C   UNL     1       2.011   0.620  -0.606  0.00  0.00    +0.291 C 
ATOM     11  C   UNL     1       1.675  -0.671  -0.871  0.00  0.00    +0.110 C 
ATOM     12  C   UNL     1       2.108  -1.211  -2.207  0.00  0.00    +0.197 C 
ATOM     13  O   UNL     1       2.579  -0.501  -3.094  0.00  0.00    -0.287 OA
ATOM     14  C   UNL     1       1.977  -2.659  -2.433  0.00  0.00    +0.098 C 
ATOM     15  C   UNL     1       1.419  -3.435  -1.504  0.00  0.00    +0.139 C 
ATOM     16  C   UNL     1       0.881  -2.908  -0.259  0.00  0.00    +0.091 C 
ATOM     17 CL   UNL     1       0.141  -4.090   0.799  0.00  0.00    -0.079 Cl
ATOM     18  C   UNL     1       0.957  -1.590   0.062  0.00  0.00    +0.018 C 
ATOM     19  C   UNL     1       0.330  -1.114   1.301  0.00  0.00    +0.051 C 
ENDROOT
BRANCH   1  20
ATOM     20  O   UNL     1      -1.326  -0.513   2.831  0.00  0.00    -0.511 OA
ATOM     21  H   UNL     1      -2.292  -0.567   2.929  0.00  0.00    +0.292 HD
ENDBRANCH   1  20
BRANCH  10  22
ATOM     22  O   UNL     1       2.697   1.435  -1.492  0.00  0.00    -0.480 OA
ATOM     23  H   UNL     1       2.833   0.947  -2.333  0.00  0.00    +0.295 HD
ENDBRANCH  10  22
BRANCH  15  24
ATOM     24  O   UNL     1       1.320  -4.795  -1.737  0.00  0.00    -0.505 OA
ATOM     25  H   UNL     1       0.897  -5.203  -0.957  0.00  0.00    +0.292 HD
ENDBRANCH  15  24
TORSDOF 3
