REMARK  Name = 
REMARK  2 active torsions:
REMARK  status: ('A' for Active; 'I' for Inactive)
REMARK    1  A    between atoms: C_11  and  O_12
REMARK    2  A    between atoms: C_17  and  O_18
REMARK                            x       y       z     vdW  Elec       q    Type
REMARK                         _______ _______ _______ _____ _____    ______ ____
ROOT
ATOM      1  O   UNL     1       0.196  -1.583  -0.417  0.00  0.00    -0.297 OA
ATOM      2  C   UNL     1       1.012  -1.065   0.345  0.00  0.00    +0.138 C 
ATOM      3  C   UNL     1       1.580  -1.808   1.550  0.00  0.00    +0.075 C 
ATOM      4  C   UNL     1       0.659  -2.878   2.135  0.00  0.00    +0.012 C 
ATOM      5  C   UNL     1      -0.344  -2.329   3.157  0.00  0.00    +0.027 C 
ATOM      6  C   UNL     1      -1.331  -1.379   2.552  0.00  0.00    -0.031 C 
ATOM      7  C   UNL     1      -1.478  -0.096   2.917  0.00  0.00    -0.028 C 
ATOM      8  C   UNL     1      -2.474   0.825   2.263  0.00  0.00    +0.068 C 
ATOM      9  C   UNL     1      -1.822   1.981   1.499  0.00  0.00    +0.236 C 
ATOM     10  O   UNL     1      -0.975   1.447   0.477  0.00  0.00    -0.464 OA
ATOM     11  C   UNL     1      -0.678   2.298  -0.571  0.00  0.00    +0.290 C 
ATOM     12  C   UNL     1       0.340   1.995  -1.417  0.00  0.00    +0.106 C 
ATOM     13  C   UNL     1       0.446   2.848  -2.657  0.00  0.00    +0.197 C 
ATOM     14  O   UNL     1      -0.088   3.950  -2.756  0.00  0.00    -0.287 OA
ATOM     15  C   UNL     1       1.188   2.281  -3.797  0.00  0.00    +0.098 C 
ATOM     16  C   UNL     1       1.899   1.163  -3.639  0.00  0.00    +0.139 C 
ATOM     17  C   UNL     1       2.041   0.507  -2.349  0.00  0.00    +0.087 C 
ATOM     18 CL   UNL     1       3.234  -0.760  -2.258  0.00  0.00    -0.079 Cl
ATOM     19  C   UNL     1       1.321   0.893  -1.268  0.00  0.00    -0.001 C 
ATOM     20  C   UNL     1       1.602   0.326   0.111  0.00  0.00    +0.112 C 
ENDROOT
BRANCH  11  21
ATOM     21  O   UNL     1      -1.505   3.397  -0.745  0.00  0.00    -0.480 OA
ATOM     22  H   UNL     1      -1.187   3.922  -1.512  0.00  0.00    +0.295 HD
ENDBRANCH  11  21
BRANCH  16  23
ATOM     23  O   UNL     1       2.574   0.630  -4.722  0.00  0.00    -0.505 OA
ATOM     24  H   UNL     1       3.013  -0.190  -4.426  0.00  0.00    +0.292 HD
ENDBRANCH  16  23
TORSDOF 2
