REMARK  Name = 
REMARK  3 active torsions:
REMARK  status: ('A' for Active; 'I' for Inactive)
REMARK    1  A    between atoms: O_1  and  C_2
REMARK    2  A    between atoms: C_11  and  O_12
REMARK    3  A    between atoms: C_17  and  O_18
REMARK                            x       y       z     vdW  Elec       q    Type
REMARK                         _______ _______ _______ _____ _____    ______ ____
ROOT
ATOM      1  C   UNL     1      -0.695  -1.956  -0.269  0.00  0.00    +0.095 C 
ATOM      2  C   UNL     1      -1.336  -1.525  -1.567  0.00  0.00    +0.074 C 
ATOM      3  C   UNL     1      -1.921  -0.109  -1.629  0.00  0.00    +0.012 C 
ATOM      4  C   UNL     1      -2.910   0.236  -0.510  0.00  0.00    +0.027 C 
ATOM      5  C   UNL     1      -2.249   1.055   0.559  0.00  0.00    -0.031 C 
ATOM      6  C   UNL     1      -2.079   0.665   1.831  0.00  0.00    -0.028 C 
ATOM      7  C   UNL     1      -1.302   1.485   2.826  0.00  0.00    +0.068 C 
ATOM      8  C   UNL     1      -0.023   0.783   3.304  0.00  0.00    +0.236 C 
ATOM      9  O   UNL     1       0.761   0.216   2.248  0.00  0.00    -0.464 OA
ATOM     10  C   UNL     1       1.322   1.110   1.352  0.00  0.00    +0.291 C 
ATOM     11  C   UNL     1       1.670   0.691   0.106  0.00  0.00    +0.110 C 
ATOM     12  C   UNL     1       2.378   1.693  -0.763  0.00  0.00    +0.197 C 
ATOM     13  O   UNL     1       2.398   2.896  -0.512  0.00  0.00    -0.287 OA
ATOM     14  C   UNL     1       3.111   1.175  -1.931  0.00  0.00    +0.098 C 
ATOM     15  C   UNL     1       3.028  -0.116  -2.255  0.00  0.00    +0.139 C 
ATOM     16  C   UNL     1       2.179  -1.053  -1.535  0.00  0.00    +0.091 C 
ATOM     17 CL   UNL     1       2.132  -2.680  -2.175  0.00  0.00    -0.079 Cl
ATOM     18  C   UNL     1       1.478  -0.687  -0.431  0.00  0.00    +0.018 C 
ATOM     19  C   UNL     1       0.531  -1.627   0.179  0.00  0.00    +0.051 C 
ENDROOT
BRANCH   1  20
ATOM     20  O   UNL     1      -1.495  -2.819   0.464  0.00  0.00    -0.511 OA
ATOM     21  H   UNL     1      -1.053  -3.021   1.306  0.00  0.00    +0.292 HD
ENDBRANCH   1  20
BRANCH  10  22
ATOM     22  O   UNL     1       1.542   2.398   1.815  0.00  0.00    -0.480 OA
ATOM     23  H   UNL     1       1.880   2.948   1.074  0.00  0.00    +0.295 HD
ENDBRANCH  10  22
BRANCH  15  24
ATOM     24  O   UNL     1       3.739  -0.582  -3.346  0.00  0.00    -0.505 OA
ATOM     25  H   UNL     1       3.539  -1.531  -3.453  0.00  0.00    +0.292 HD
ENDBRANCH  15  24
TORSDOF 3
