REMARK  Name = 
REMARK  2 active torsions:
REMARK  status: ('A' for Active; 'I' for Inactive)
REMARK    1  A    between atoms: C_14  and  O_15
REMARK    2  A    between atoms: C_17  and  O_18
REMARK                            x       y       z     vdW  Elec       q    Type
REMARK                         _______ _______ _______ _____ _____    ______ ____
ROOT
ATOM      1  O   UNL     1       0.426  -0.333  -2.774  0.00  0.00    -0.297 OA
ATOM      2  C   UNL     1       0.512  -0.942  -1.706  0.00  0.00    +0.138 C 
ATOM      3  C   UNL     1       0.140  -2.411  -1.618  0.00  0.00    +0.075 C 
ATOM      4  C   UNL     1      -1.322  -2.664  -1.987  0.00  0.00    +0.012 C 
ATOM      5  C   UNL     1      -2.245  -2.850  -0.777  0.00  0.00    +0.027 C 
ATOM      6  C   UNL     1      -2.354  -1.633   0.097  0.00  0.00    -0.031 C 
ATOM      7  C   UNL     1      -2.096  -1.637   1.415  0.00  0.00    -0.028 C 
ATOM      8  C   UNL     1      -2.193  -0.481   2.382  0.00  0.00    +0.068 C 
ATOM      9  C   UNL     1      -2.346   0.933   1.814  0.00  0.00    +0.236 C 
ATOM     10  O   UNL     1      -1.084   1.379   1.288  0.00  0.00    -0.461 OA
ATOM     11  C   UNL     1      -1.073   1.737  -0.018  0.00  0.00    +0.343 C 
ATOM     12  O   UNL     1      -2.000   1.710  -0.806  0.00  0.00    -0.245 OA
ATOM     13  C   UNL     1       0.299   2.148  -0.363  0.00  0.00    +0.105 A 
ATOM     14  C   UNL     1       0.550   3.521  -0.518  0.00  0.00    +0.135 A 
ATOM     15  C   UNL     1       1.808   3.968  -0.905  0.00  0.00    +0.093 A 
ATOM     16  C   UNL     1       2.808   3.035  -1.149  0.00  0.00    +0.139 A 
ATOM     17  C   UNL     1       2.576   1.659  -0.996  0.00  0.00    +0.087 A 
ATOM     18 CL   UNL     1       3.887   0.577  -1.340  0.00  0.00    -0.079 Cl
ATOM     19  C   UNL     1       1.317   1.188  -0.581  0.00  0.00    -0.001 A 
ATOM     20  C   UNL     1       1.038  -0.294  -0.438  0.00  0.00    +0.112 C 
ENDROOT
BRANCH  14  21
ATOM     21  O   UNL     1      -0.442   4.429  -0.270  0.00  0.00    -0.506 OA
ATOM     22  H   UNL     1      -0.157   5.309  -0.570  0.00  0.00    +0.292 HD
ENDBRANCH  14  21
BRANCH  16  23
ATOM     23  O   UNL     1       4.025   3.527  -1.543  0.00  0.00    -0.505 OA
ATOM     24  H   UNL     1       4.601   2.761  -1.728  0.00  0.00    +0.292 HD
ENDBRANCH  16  23
TORSDOF 2
