REMARK  Name = 
REMARK  3 active torsions:
REMARK  status: ('A' for Active; 'I' for Inactive)
REMARK    1  A    between atoms: O_1  and  C_2
REMARK    2  A    between atoms: C_14  and  O_15
REMARK    3  A    between atoms: C_17  and  O_18
REMARK                            x       y       z     vdW  Elec       q    Type
REMARK                         _______ _______ _______ _____ _____    ______ ____
ROOT
ATOM      1  C   UNL     1      -1.016  -2.082  -2.202  0.00  0.00    +0.095 C 
ATOM      2  C   UNL     1      -1.939  -2.827  -1.566  0.00  0.00    +0.014 C 
ATOM      3  C   UNL     1      -1.875  -3.710  -0.340  0.00  0.00    +0.034 C 
ATOM      4  C   UNL     1      -1.012  -3.321   0.868  0.00  0.00    +0.031 C 
ATOM      5  C   UNL     1      -1.129  -1.916   1.396  0.00  0.00    -0.031 C 
ATOM      6  C   UNL     1      -2.123  -1.042   1.169  0.00  0.00    -0.028 C 
ATOM      7  C   UNL     1      -2.114   0.419   1.538  0.00  0.00    +0.068 C 
ATOM      8  C   UNL     1      -0.758   1.130   1.448  0.00  0.00    +0.236 C 
ATOM      9  O   UNL     1      -0.279   1.102   0.090  0.00  0.00    -0.461 OA
ATOM     10  C   UNL     1       0.872   0.420  -0.119  0.00  0.00    +0.343 C 
ATOM     11  O   UNL     1       1.547  -0.186   0.697  0.00  0.00    -0.245 OA
ATOM     12  C   UNL     1       1.221   0.476  -1.549  0.00  0.00    +0.105 A 
ATOM     13  C   UNL     1       1.763   1.676  -2.042  0.00  0.00    +0.135 A 
ATOM     14  C   UNL     1       2.199   1.764  -3.359  0.00  0.00    +0.093 A 
ATOM     15  C   UNL     1       2.111   0.642  -4.173  0.00  0.00    +0.139 A 
ATOM     16  C   UNL     1       1.583  -0.568  -3.696  0.00  0.00    +0.087 A 
ATOM     17 CL   UNL     1       1.552  -1.913  -4.795  0.00  0.00    -0.079 Cl
ATOM     18  C   UNL     1       1.115  -0.673  -2.370  0.00  0.00    -0.001 A 
ATOM     19  C   UNL     1       0.461  -1.954  -1.864  0.00  0.00    +0.110 C 
ENDROOT
BRANCH   1  20
ATOM     20  O   UNL     1      -1.405  -1.359  -3.326  0.00  0.00    -0.511 OA
ATOM     21  H   UNL     1      -2.359  -1.469  -3.468  0.00  0.00    +0.292 HD
ENDBRANCH   1  20
BRANCH  13  22
ATOM     22  O   UNL     1       1.884   2.763  -1.220  0.00  0.00    -0.506 OA
ATOM     23  H   UNL     1       2.280   3.500  -1.715  0.00  0.00    +0.292 HD
ENDBRANCH  13  22
BRANCH  15  24
ATOM     24  O   UNL     1       2.568   0.777  -5.458  0.00  0.00    -0.505 OA
ATOM     25  H   UNL     1       2.421  -0.080  -5.902  0.00  0.00    +0.292 HD
ENDBRANCH  15  24
TORSDOF 3
