REMARK  Name = 
REMARK  3 active torsions:
REMARK  status: ('A' for Active; 'I' for Inactive)
REMARK    1  A    between atoms: O_1  and  C_2
REMARK    2  A    between atoms: C_11  and  O_12
REMARK    3  A    between atoms: C_17  and  O_18
REMARK                            x       y       z     vdW  Elec       q    Type
REMARK                         _______ _______ _______ _____ _____    ______ ____
ROOT
ATOM      1  C   UNL     1      -1.143  -2.106  -1.729  0.00  0.00    +0.095 C 
ATOM      2  C   UNL     1       0.188  -2.737  -1.400  0.00  0.00    +0.074 C 
ATOM      3  C   UNL     1       0.223  -3.801  -0.286  0.00  0.00    +0.012 C 
ATOM      4  C   UNL     1      -0.524  -3.518   1.028  0.00  0.00    +0.027 C 
ATOM      5  C   UNL     1      -0.565  -2.075   1.442  0.00  0.00    -0.031 C 
ATOM      6  C   UNL     1      -1.714  -1.440   1.730  0.00  0.00    -0.028 C 
ATOM      7  C   UNL     1      -1.898   0.035   1.981  0.00  0.00    +0.068 C 
ATOM      8  C   UNL     1      -0.851   0.959   1.355  0.00  0.00    +0.236 C 
ATOM      9  O   UNL     1      -0.915   0.838  -0.074  0.00  0.00    -0.464 OA
ATOM     10  C   UNL     1       0.184   1.382  -0.717  0.00  0.00    +0.291 C 
ATOM     11  C   UNL     1       0.515   0.980  -1.974  0.00  0.00    +0.110 C 
ATOM     12  C   UNL     1       1.709   1.662  -2.589  0.00  0.00    +0.197 C 
ATOM     13  O   UNL     1       2.428   2.447  -1.973  0.00  0.00    -0.287 OA
ATOM     14  C   UNL     1       2.015   1.387  -4.002  0.00  0.00    +0.098 C 
ATOM     15  C   UNL     1       1.281   0.509  -4.689  0.00  0.00    +0.139 C 
ATOM     16  C   UNL     1       0.180  -0.228  -4.084  0.00  0.00    +0.091 C 
ATOM     17 CL   UNL     1      -0.629  -1.388  -5.122  0.00  0.00    -0.079 Cl
ATOM     18  C   UNL     1      -0.209  -0.033  -2.793  0.00  0.00    +0.018 C 
ATOM     19  C   UNL     1      -1.292  -0.884  -2.276  0.00  0.00    +0.051 C 
ENDROOT
BRANCH   1  20
ATOM     20  O   UNL     1      -2.246  -2.889  -1.434  0.00  0.00    -0.511 OA
ATOM     21  H   UNL     1      -3.051  -2.375  -1.613  0.00  0.00    +0.292 HD
ENDBRANCH   1  20
BRANCH  10  22
ATOM     22  O   UNL     1       0.886   2.354  -0.017  0.00  0.00    -0.480 OA
ATOM     23  H   UNL     1       1.657   2.645  -0.550  0.00  0.00    +0.295 HD
ENDBRANCH  10  22
BRANCH  15  24
ATOM     24  O   UNL     1       1.543   0.242  -6.019  0.00  0.00    -0.505 OA
ATOM     25  H   UNL     1       2.298   0.773  -6.321  0.00  0.00    +0.292 HD
ENDBRANCH  15  24
TORSDOF 3
