REMARK  Name = 
REMARK  2 active torsions:
REMARK  status: ('A' for Active; 'I' for Inactive)
REMARK    1  A    between atoms: C_14  and  O_15
REMARK    2  A    between atoms: C_17  and  O_18
REMARK                            x       y       z     vdW  Elec       q    Type
REMARK                         _______ _______ _______ _____ _____    ______ ____
ROOT
ATOM      1  O   UNL     1      -1.446  -1.012   1.662  0.00  0.00    -0.297 OA
ATOM      2  C   UNL     1      -1.762  -0.294   0.712  0.00  0.00    +0.138 C 
ATOM      3  C   UNL     1      -2.777   0.817   0.914  0.00  0.00    +0.075 C 
ATOM      4  C   UNL     1      -2.446   2.171   0.291  0.00  0.00    +0.012 C 
ATOM      5  C   UNL     1      -1.302   2.934   0.971  0.00  0.00    +0.027 C 
ATOM      6  C   UNL     1       0.057   2.421   0.587  0.00  0.00    -0.031 C 
ATOM      7  C   UNL     1       0.756   2.909  -0.452  0.00  0.00    -0.028 C 
ATOM      8  C   UNL     1       2.095   2.438  -0.969  0.00  0.00    +0.068 C 
ATOM      9  C   UNL     1       2.671   1.150  -0.378  0.00  0.00    +0.236 C 
ATOM     10  O   UNL     1       1.893   0.025  -0.826  0.00  0.00    -0.461 OA
ATOM     11  C   UNL     1       1.613  -0.899   0.126  0.00  0.00    +0.343 C 
ATOM     12  O   UNL     1       1.923  -0.861   1.303  0.00  0.00    -0.245 OA
ATOM     13  C   UNL     1       0.853  -2.002  -0.497  0.00  0.00    +0.105 A 
ATOM     14  C   UNL     1       1.516  -3.230  -0.652  0.00  0.00    +0.135 A 
ATOM     15  C   UNL     1       0.840  -4.341  -1.144  0.00  0.00    +0.093 A 
ATOM     16  C   UNL     1      -0.505  -4.223  -1.466  0.00  0.00    +0.139 A 
ATOM     17  C   UNL     1      -1.184  -3.002  -1.324  0.00  0.00    +0.087 A 
ATOM     18 CL   UNL     1      -2.871  -2.970  -1.731  0.00  0.00    -0.079 Cl
ATOM     19  C   UNL     1      -0.511  -1.857  -0.857  0.00  0.00    -0.001 A 
ATOM     20  C   UNL     1      -1.234  -0.534  -0.693  0.00  0.00    +0.112 C 
ENDROOT
BRANCH  14  21
ATOM     21  O   UNL     1       2.842  -3.337  -0.337  0.00  0.00    -0.506 OA
ATOM     22  H   UNL     1       3.098  -4.275  -0.322  0.00  0.00    +0.292 HD
ENDBRANCH  14  21
BRANCH  16  23
ATOM     23  O   UNL     1      -1.128  -5.352  -1.929  0.00  0.00    -0.505 OA
ATOM     24  H   UNL     1      -2.068  -5.128  -2.070  0.00  0.00    +0.292 HD
ENDBRANCH  16  23
TORSDOF 2
