REMARK  Name = 
REMARK  3 active torsions:
REMARK  status: ('A' for Active; 'I' for Inactive)
REMARK    1  A    between atoms: O_1  and  C_2
REMARK    2  A    between atoms: C_14  and  O_15
REMARK    3  A    between atoms: C_17  and  O_18
REMARK                            x       y       z     vdW  Elec       q    Type
REMARK                         _______ _______ _______ _____ _____    ______ ____
ROOT
ATOM      1  C   UNL     1      -0.658   2.254  -0.584  0.00  0.00    +0.095 C 
ATOM      2  C   UNL     1      -0.482   1.388  -1.806  0.00  0.00    +0.074 C 
ATOM      3  C   UNL     1       0.853   0.642  -1.947  0.00  0.00    +0.012 C 
ATOM      4  C   UNL     1       0.923  -0.185  -3.250  0.00  0.00    +0.027 C 
ATOM      5  C   UNL     1      -0.268  -1.092  -3.419  0.00  0.00    -0.031 C 
ATOM      6  C   UNL     1      -0.546  -2.064  -2.538  0.00  0.00    -0.028 C 
ATOM      7  C   UNL     1      -1.887  -2.732  -2.398  0.00  0.00    +0.068 C 
ATOM      8  C   UNL     1      -2.728  -2.010  -1.330  0.00  0.00    +0.236 C 
ATOM      9  O   UNL     1      -1.905  -1.821  -0.167  0.00  0.00    -0.461 OA
ATOM     10  C   UNL     1      -2.076  -0.681   0.548  0.00  0.00    +0.343 C 
ATOM     11  O   UNL     1      -2.987   0.119   0.440  0.00  0.00    -0.245 OA
ATOM     12  C   UNL     1      -0.868  -0.518   1.397  0.00  0.00    +0.109 A 
ATOM     13  C   UNL     1      -0.464  -1.601   2.210  0.00  0.00    +0.135 A 
ATOM     14  C   UNL     1       0.711  -1.545   2.953  0.00  0.00    +0.093 A 
ATOM     15  C   UNL     1       1.485  -0.397   2.899  0.00  0.00    +0.139 A 
ATOM     16  C   UNL     1       1.087   0.708   2.135  0.00  0.00    +0.091 A 
ATOM     17 CL   UNL     1       2.126   2.104   2.158  0.00  0.00    -0.079 Cl
ATOM     18  C   UNL     1      -0.108   0.676   1.377  0.00  0.00    +0.017 A 
ATOM     19  C   UNL     1      -0.526   1.926   0.709  0.00  0.00    +0.051 C 
ENDROOT
BRANCH   1  20
ATOM     20  O   UNL     1      -1.052   3.565  -0.843  0.00  0.00    -0.511 OA
ATOM     21  H   UNL     1      -1.396   3.619  -1.751  0.00  0.00    +0.292 HD
ENDBRANCH   1  20
BRANCH  13  22
ATOM     22  O   UNL     1      -1.245  -2.723   2.309  0.00  0.00    -0.506 OA
ATOM     23  H   UNL     1      -0.817  -3.375   2.889  0.00  0.00    +0.292 HD
ENDBRANCH  13  22
BRANCH  15  24
ATOM     24  O   UNL     1       2.637  -0.395   3.640  0.00  0.00    -0.505 OA
ATOM     25  H   UNL     1       3.063   0.475   3.514  0.00  0.00    +0.292 HD
ENDBRANCH  15  24
TORSDOF 3
