REMARK  Name = 
REMARK  3 active torsions:
REMARK  status: ('A' for Active; 'I' for Inactive)
REMARK    1  A    between atoms: O_1  and  C_2
REMARK    2  A    between atoms: C_14  and  O_15
REMARK    3  A    between atoms: C_17  and  O_18
REMARK                            x       y       z     vdW  Elec       q    Type
REMARK                         _______ _______ _______ _____ _____    ______ ____
ROOT
ATOM      1  C   UNL     1      -1.484  -0.780  -1.480  0.00  0.00    +0.095 C 
ATOM      2  C   UNL     1      -1.218  -2.076  -1.259  0.00  0.00    +0.014 C 
ATOM      3  C   UNL     1       0.102  -2.794  -1.341  0.00  0.00    +0.034 C 
ATOM      4  C   UNL     1       0.408  -3.633  -0.093  0.00  0.00    +0.031 C 
ATOM      5  C   UNL     1       0.478  -2.796   1.151  0.00  0.00    -0.031 C 
ATOM      6  C   UNL     1       1.625  -2.353   1.685  0.00  0.00    -0.028 C 
ATOM      7  C   UNL     1       1.678  -1.435   2.873  0.00  0.00    +0.068 C 
ATOM      8  C   UNL     1       2.117  -0.028   2.472  0.00  0.00    +0.236 C 
ATOM      9  O   UNL     1       1.050   0.652   1.787  0.00  0.00    -0.461 OA
ATOM     10  C   UNL     1       1.255   0.931   0.477  0.00  0.00    +0.343 C 
ATOM     11  O   UNL     1       2.158   0.527  -0.236  0.00  0.00    -0.245 OA
ATOM     12  C   UNL     1       0.209   1.875   0.013  0.00  0.00    +0.105 A 
ATOM     13  C   UNL     1       0.102   3.112   0.685  0.00  0.00    +0.135 A 
ATOM     14  C   UNL     1      -0.818   4.072   0.277  0.00  0.00    +0.093 A 
ATOM     15  C   UNL     1      -1.615   3.812  -0.825  0.00  0.00    +0.139 A 
ATOM     16  C   UNL     1      -1.508   2.602  -1.527  0.00  0.00    +0.087 A 
ATOM     17 CL   UNL     1      -2.548   2.396  -2.905  0.00  0.00    -0.079 Cl
ATOM     18  C   UNL     1      -0.594   1.601  -1.126  0.00  0.00    -0.001 A 
ATOM     19  C   UNL     1      -0.489   0.290  -1.894  0.00  0.00    +0.110 C 
ENDROOT
BRANCH   1  20
ATOM     20  O   UNL     1      -2.820  -0.406  -1.391  0.00  0.00    -0.511 OA
ATOM     21  H   UNL     1      -2.951   0.412  -1.901  0.00  0.00    +0.292 HD
ENDBRANCH   1  20
BRANCH  13  22
ATOM     22  O   UNL     1       0.935   3.408   1.731  0.00  0.00    -0.506 OA
ATOM     23  H   UNL     1       0.701   4.274   2.104  0.00  0.00    +0.292 HD
ENDBRANCH  13  22
BRANCH  15  24
ATOM     24  O   UNL     1      -2.494   4.796  -1.193  0.00  0.00    -0.505 OA
ATOM     25  H   UNL     1      -2.970   4.487  -1.987  0.00  0.00    +0.292 HD
ENDBRANCH  15  24
TORSDOF 3
