REMARK  Name = 
REMARK  3 active torsions:
REMARK  status: ('A' for Active; 'I' for Inactive)
REMARK    1  A    between atoms: O_1  and  C_2
REMARK    2  A    between atoms: C_14  and  O_15
REMARK    3  A    between atoms: C_17  and  O_18
REMARK                            x       y       z     vdW  Elec       q    Type
REMARK                         _______ _______ _______ _____ _____    ______ ____
ROOT
ATOM      1  C   UNL     1       1.911   0.845   0.440  0.00  0.00    +0.095 C 
ATOM      2  C   UNL     1       2.042  -0.576   0.944  0.00  0.00    +0.074 C 
ATOM      3  C   UNL     1       1.961  -0.804   2.467  0.00  0.00    +0.012 C 
ATOM      4  C   UNL     1       0.707  -0.293   3.189  0.00  0.00    +0.027 C 
ATOM      5  C   UNL     1      -0.567  -0.643   2.480  0.00  0.00    -0.031 C 
ATOM      6  C   UNL     1      -1.431   0.284   2.038  0.00  0.00    -0.028 C 
ATOM      7  C   UNL     1      -2.603  -0.029   1.153  0.00  0.00    +0.068 C 
ATOM      8  C   UNL     1      -2.438   0.634  -0.217  0.00  0.00    +0.236 C 
ATOM      9  O   UNL     1      -1.203   0.194  -0.805  0.00  0.00    -0.461 OA
ATOM     10  C   UNL     1      -1.011   0.574  -2.082  0.00  0.00    +0.343 C 
ATOM     11  O   UNL     1      -1.802   1.162  -2.805  0.00  0.00    -0.245 OA
ATOM     12  C   UNL     1       0.253   0.018  -2.593  0.00  0.00    +0.109 A 
ATOM     13  C   UNL     1       0.168  -0.754  -3.764  0.00  0.00    +0.135 A 
ATOM     14  C   UNL     1       1.296  -1.359  -4.305  0.00  0.00    +0.093 A 
ATOM     15  C   UNL     1       2.532  -1.145  -3.706  0.00  0.00    +0.139 A 
ATOM     16  C   UNL     1       2.650  -0.326  -2.568  0.00  0.00    +0.091 A 
ATOM     17 CL   UNL     1       4.244   0.002  -1.952  0.00  0.00    -0.079 Cl
ATOM     18  C   UNL     1       1.503   0.259  -1.980  0.00  0.00    +0.017 A 
ATOM     19  C   UNL     1       1.633   1.187  -0.833  0.00  0.00    +0.051 C 
ENDROOT
BRANCH   1  20
ATOM     20  O   UNL     1       2.126   1.822   1.396  0.00  0.00    -0.511 OA
ATOM     21  H   UNL     1       2.084   2.697   0.975  0.00  0.00    +0.292 HD
ENDBRANCH   1  20
BRANCH  13  22
ATOM     22  O   UNL     1      -1.002  -0.952  -4.451  0.00  0.00    -0.506 OA
ATOM     23  H   UNL     1      -1.649  -0.260  -4.193  0.00  0.00    +0.292 HD
ENDBRANCH  13  22
BRANCH  15  24
ATOM     24  O   UNL     1       3.649  -1.719  -4.255  0.00  0.00    -0.505 OA
ATOM     25  H   UNL     1       3.398  -2.254  -5.026  0.00  0.00    +0.292 HD
ENDBRANCH  15  24
TORSDOF 3
