REMARK  Name = 
REMARK  3 active torsions:
REMARK  status: ('A' for Active; 'I' for Inactive)
REMARK    1  A    between atoms: O_1  and  C_2
REMARK    2  A    between atoms: C_11  and  O_12
REMARK    3  A    between atoms: C_17  and  O_18
REMARK                            x       y       z     vdW  Elec       q    Type
REMARK                         _______ _______ _______ _____ _____    ______ ____
ROOT
ATOM      1  C   UNL     1       0.440  -1.956  -0.475  0.00  0.00    +0.095 C 
ATOM      2  C   UNL     1       0.982  -2.646   0.546  0.00  0.00    +0.014 C 
ATOM      3  C   UNL     1       2.311  -2.359   1.202  0.00  0.00    +0.034 C 
ATOM      4  C   UNL     1       2.182  -1.875   2.655  0.00  0.00    +0.031 C 
ATOM      5  C   UNL     1       1.194  -0.755   2.803  0.00  0.00    -0.031 C 
ATOM      6  C   UNL     1       1.474   0.539   2.592  0.00  0.00    -0.028 C 
ATOM      7  C   UNL     1       0.412   1.605   2.600  0.00  0.00    +0.068 C 
ATOM      8  C   UNL     1       0.171   2.210   1.212  0.00  0.00    +0.236 C 
ATOM      9  O   UNL     1      -0.303   1.197   0.311  0.00  0.00    -0.464 OA
ATOM     10  C   UNL     1      -0.737   1.710  -0.898  0.00  0.00    +0.290 C 
ATOM     11  C   UNL     1      -0.484   1.076  -2.078  0.00  0.00    +0.106 C 
ATOM     12  C   UNL     1      -1.106   1.725  -3.300  0.00  0.00    +0.197 C 
ATOM     13  O   UNL     1      -1.686   2.810  -3.263  0.00  0.00    -0.287 OA
ATOM     14  C   UNL     1      -1.020   1.016  -4.585  0.00  0.00    +0.098 C 
ATOM     15  C   UNL     1      -0.334  -0.121  -4.678  0.00  0.00    +0.139 C 
ATOM     16  C   UNL     1       0.374  -0.700  -3.550  0.00  0.00    +0.087 C 
ATOM     17 CL   UNL     1       1.298  -2.140  -3.906  0.00  0.00    -0.079 Cl
ATOM     18  C   UNL     1       0.322  -0.160  -2.306  0.00  0.00    -0.001 C 
ATOM     19  C   UNL     1       1.121  -0.785  -1.168  0.00  0.00    +0.110 C 
ENDROOT
BRANCH   1  20
ATOM     20  O   UNL     1      -0.804  -2.310  -0.972  0.00  0.00    -0.511 OA
ATOM     21  H   UNL     1      -1.182  -3.003  -0.405  0.00  0.00    +0.292 HD
ENDBRANCH   1  20
BRANCH  10  22
ATOM     22  O   UNL     1      -1.491   2.873  -0.804  0.00  0.00    -0.480 OA
ATOM     23  H   UNL     1      -1.771   3.154  -1.702  0.00  0.00    +0.295 HD
ENDBRANCH  10  22
BRANCH  15  24
ATOM     24  O   UNL     1      -0.273  -0.773  -5.897  0.00  0.00    -0.505 OA
ATOM     25  H   UNL     1       0.242  -1.592  -5.768  0.00  0.00    +0.292 HD
ENDBRANCH  15  24
TORSDOF 3
