REMARK  Name = 
REMARK  3 active torsions:
REMARK  status: ('A' for Active; 'I' for Inactive)
REMARK    1  A    between atoms: O_1  and  C_2
REMARK    2  A    between atoms: C_11  and  O_12
REMARK    3  A    between atoms: C_17  and  O_18
REMARK                            x       y       z     vdW  Elec       q    Type
REMARK                         _______ _______ _______ _____ _____    ______ ____
ROOT
ATOM      1  C   UNL     1       0.742  -1.247  -1.315  0.00  0.00    +0.095 C 
ATOM      2  C   UNL     1       0.751  -2.422  -0.664  0.00  0.00    +0.014 C 
ATOM      3  C   UNL     1       1.046  -2.887   0.741  0.00  0.00    +0.034 C 
ATOM      4  C   UNL     1       1.327  -1.900   1.876  0.00  0.00    +0.031 C 
ATOM      5  C   UNL     1       0.182  -1.056   2.363  0.00  0.00    -0.031 C 
ATOM      6  C   UNL     1      -1.117  -1.200   2.052  0.00  0.00    -0.028 C 
ATOM      7  C   UNL     1      -2.191  -0.177   2.327  0.00  0.00    +0.068 C 
ATOM      8  C   UNL     1      -1.726   1.284   2.239  0.00  0.00    +0.236 C 
ATOM      9  O   UNL     1      -0.974   1.536   1.041  0.00  0.00    -0.464 OA
ATOM     10  C   UNL     1      -1.709   1.661  -0.121  0.00  0.00    +0.290 C 
ATOM     11  C   UNL     1      -1.084   1.603  -1.324  0.00  0.00    +0.106 C 
ATOM     12  C   UNL     1      -1.900   2.089  -2.491  0.00  0.00    +0.197 C 
ATOM     13  O   UNL     1      -3.124   2.004  -2.537  0.00  0.00    -0.287 OA
ATOM     14  C   UNL     1      -1.151   2.789  -3.553  0.00  0.00    +0.098 C 
ATOM     15  C   UNL     1       0.183   2.719  -3.572  0.00  0.00    +0.139 C 
ATOM     16  C   UNL     1       0.930   1.864  -2.658  0.00  0.00    +0.087 C 
ATOM     17 CL   UNL     1       2.577   1.527  -3.107  0.00  0.00    -0.079 Cl
ATOM     18  C   UNL     1       0.333   1.264  -1.599  0.00  0.00    -0.001 C 
ATOM     19  C   UNL     1       1.021   0.158  -0.787  0.00  0.00    +0.110 C 
ENDROOT
BRANCH   1  20
ATOM     20  O   UNL     1       0.494  -1.347  -2.687  0.00  0.00    -0.511 OA
ATOM     21  H   UNL     1       1.045  -0.691  -3.146  0.00  0.00    +0.292 HD
ENDBRANCH   1  20
BRANCH  10  22
ATOM     22  O   UNL     1      -3.057   1.959   0.015  0.00  0.00    -0.480 OA
ATOM     23  H   UNL     1      -3.478   1.946  -0.873  0.00  0.00    +0.295 HD
ENDBRANCH  10  22
BRANCH  15  24
ATOM     24  O   UNL     1       0.885   3.407  -4.544  0.00  0.00    -0.505 OA
ATOM     25  H   UNL     1       1.834   3.216  -4.428  0.00  0.00    +0.292 HD
ENDBRANCH  15  24
TORSDOF 3
