REMARK  Name = 
REMARK  3 active torsions:
REMARK  status: ('A' for Active; 'I' for Inactive)
REMARK    1  A    between atoms: O_1  and  C_2
REMARK    2  A    between atoms: C_14  and  O_15
REMARK    3  A    between atoms: C_17  and  O_18
REMARK                            x       y       z     vdW  Elec       q    Type
REMARK                         _______ _______ _______ _____ _____    ______ ____
ROOT
ATOM      1  C   UNL     1      -0.177   1.845   0.198  0.00  0.00    +0.095 C 
ATOM      2  C   UNL     1       0.354   2.541  -0.823  0.00  0.00    +0.014 C 
ATOM      3  C   UNL     1       1.474   2.306  -1.809  0.00  0.00    +0.034 C 
ATOM      4  C   UNL     1       2.255   0.990  -1.903  0.00  0.00    +0.031 C 
ATOM      5  C   UNL     1       1.469  -0.134  -2.520  0.00  0.00    -0.031 C 
ATOM      6  C   UNL     1       1.762  -1.429  -2.319  0.00  0.00    -0.028 C 
ATOM      7  C   UNL     1       0.945  -2.602  -2.798  0.00  0.00    +0.068 C 
ATOM      8  C   UNL     1      -0.576  -2.421  -2.743  0.00  0.00    +0.236 C 
ATOM      9  O   UNL     1      -0.978  -2.243  -1.374  0.00  0.00    -0.461 OA
ATOM     10  C   UNL     1      -1.593  -1.072  -1.075  0.00  0.00    +0.343 C 
ATOM     11  O   UNL     1      -1.876  -0.157  -1.827  0.00  0.00    -0.245 OA
ATOM     12  C   UNL     1      -1.826  -1.059   0.381  0.00  0.00    +0.105 A 
ATOM     13  C   UNL     1      -2.928  -1.774   0.877  0.00  0.00    +0.135 A 
ATOM     14  C   UNL     1      -3.198  -1.791   2.240  0.00  0.00    +0.093 A 
ATOM     15  C   UNL     1      -2.365  -1.086   3.100  0.00  0.00    +0.139 A 
ATOM     16  C   UNL     1      -1.260  -0.363   2.622  0.00  0.00    +0.087 A 
ATOM     17 CL   UNL     1      -0.292   0.480   3.789  0.00  0.00    -0.079 Cl
ATOM     18  C   UNL     1      -0.965  -0.338   1.245  0.00  0.00    -0.001 A 
ATOM     19  C   UNL     1       0.203   0.467   0.693  0.00  0.00    +0.110 C 
ENDROOT
BRANCH   1  20
ATOM     20  O   UNL     1      -1.204   2.427   0.938  0.00  0.00    -0.511 OA
ATOM     21  H   UNL     1      -1.510   3.230   0.483  0.00  0.00    +0.292 HD
ENDBRANCH   1  20
BRANCH  13  22
ATOM     22  O   UNL     1      -3.746  -2.455   0.019  0.00  0.00    -0.506 OA
ATOM     23  H   UNL     1      -4.477  -2.856   0.518  0.00  0.00    +0.292 HD
ENDBRANCH  13  22
BRANCH  15  24
ATOM     24  O   UNL     1      -2.679  -1.132   4.434  0.00  0.00    -0.505 OA
ATOM     25  H   UNL     1      -2.032  -0.566   4.898  0.00  0.00    +0.292 HD
ENDBRANCH  15  24
TORSDOF 3
