REMARK  Name = 
REMARK  2 active torsions:
REMARK  status: ('A' for Active; 'I' for Inactive)
REMARK    1  A    between atoms: C_14  and  O_15
REMARK    2  A    between atoms: C_17  and  O_18
REMARK                            x       y       z     vdW  Elec       q    Type
REMARK                         _______ _______ _______ _____ _____    ______ ____
ROOT
ATOM      1  O   UNL     1      -1.384   1.104  -0.619  0.00  0.00    -0.297 OA
ATOM      2  C   UNL     1      -0.929   0.124  -1.210  0.00  0.00    +0.138 C 
ATOM      3  C   UNL     1      -1.830  -0.919  -1.857  0.00  0.00    +0.075 C 
ATOM      4  C   UNL     1      -3.201  -1.056  -1.195  0.00  0.00    +0.012 C 
ATOM      5  C   UNL     1      -3.202  -1.971   0.036  0.00  0.00    +0.027 C 
ATOM      6  C   UNL     1      -2.329  -1.472   1.149  0.00  0.00    -0.031 C 
ATOM      7  C   UNL     1      -1.306  -2.162   1.676  0.00  0.00    -0.028 C 
ATOM      8  C   UNL     1      -0.438  -1.631   2.786  0.00  0.00    +0.068 C 
ATOM      9  C   UNL     1       1.042  -1.583   2.399  0.00  0.00    +0.236 C 
ATOM     10  O   UNL     1       1.290  -0.712   1.279  0.00  0.00    -0.461 OA
ATOM     11  C   UNL     1       1.288   0.611   1.546  0.00  0.00    +0.343 C 
ATOM     12  O   UNL     1       1.107   1.113   2.648  0.00  0.00    -0.245 OA
ATOM     13  C   UNL     1       1.697   1.427   0.366  0.00  0.00    +0.105 A 
ATOM     14  C   UNL     1       2.413   2.610   0.667  0.00  0.00    +0.135 A 
ATOM     15  C   UNL     1       2.871   3.458  -0.335  0.00  0.00    +0.093 A 
ATOM     16  C   UNL     1       2.584   3.157  -1.654  0.00  0.00    +0.139 A 
ATOM     17  C   UNL     1       1.849   2.010  -1.988  0.00  0.00    +0.087 A 
ATOM     18 CL   UNL     1       1.500   1.768  -3.674  0.00  0.00    -0.079 Cl
ATOM     19  C   UNL     1       1.405   1.107  -0.990  0.00  0.00    -0.001 A 
ATOM     20  C   UNL     1       0.564  -0.093  -1.389  0.00  0.00    +0.112 C 
ENDROOT
BRANCH  14  21
ATOM     21  O   UNL     1       2.712   3.013   1.945  0.00  0.00    -0.506 OA
ATOM     22  H   UNL     1       2.146   2.515   2.576  0.00  0.00    +0.292 HD
ENDBRANCH  14  21
BRANCH  16  23
ATOM     23  O   UNL     1       3.036   4.036  -2.602  0.00  0.00    -0.505 OA
ATOM     24  H   UNL     1       2.722   3.719  -3.469  0.00  0.00    +0.292 HD
ENDBRANCH  16  23
TORSDOF 2
