REMARK  Name = 
REMARK  2 active torsions:
REMARK  status: ('A' for Active; 'I' for Inactive)
REMARK    1  A    between atoms: C_11  and  O_12
REMARK    2  A    between atoms: C_14  and  O_15
REMARK                            x       y       z     vdW  Elec       q    Type
REMARK                         _______ _______ _______ _____ _____    ______ ____
ROOT
ATOM      1  O   UNL     1      -0.683  -1.683  -1.185  0.00  0.00    -0.297 OA
ATOM      2  C   UNL     1       0.515  -1.844  -0.931  0.00  0.00    +0.138 C 
ATOM      3  C   UNL     1       0.976  -3.104  -0.216  0.00  0.00    +0.075 C 
ATOM      4  C   UNL     1       1.652  -2.867   1.133  0.00  0.00    +0.012 C 
ATOM      5  C   UNL     1       0.696  -2.481   2.269  0.00  0.00    +0.027 C 
ATOM      6  C   UNL     1       0.057  -1.140   2.073  0.00  0.00    -0.031 C 
ATOM      7  C   UNL     1       0.570   0.007   2.544  0.00  0.00    -0.028 C 
ATOM      8  C   UNL     1      -0.032   1.361   2.274  0.00  0.00    +0.068 C 
ATOM      9  C   UNL     1       0.890   2.222   1.403  0.00  0.00    +0.236 C 
ATOM     10  O   UNL     1       1.084   1.651   0.103  0.00  0.00    -0.464 OA
ATOM     11  C   UNL     1       0.063   1.840  -0.807  0.00  0.00    +0.290 C 
ATOM     12  C   UNL     1       0.049   1.154  -1.982  0.00  0.00    +0.101 C 
ATOM     13  C   UNL     1      -0.974   1.444  -2.993  0.00  0.00    +0.135 C 
ATOM     14  C   UNL     1      -0.683   1.391  -4.294  0.00  0.00    +0.098 C 
ATOM     15  C   UNL     1       0.653   0.893  -4.701  0.00  0.00    +0.201 C 
ATOM     16  O   UNL     1       1.061   1.089  -5.840  0.00  0.00    -0.286 OA
ATOM     17  C   UNL     1       1.395   0.073  -3.682  0.00  0.00    +0.092 C 
ATOM     18 CL   UNL     1       2.570  -1.020  -4.326  0.00  0.00    -0.079 Cl
ATOM     19  C   UNL     1       1.067   0.142  -2.371  0.00  0.00    -0.001 C 
ATOM     20  C   UNL     1       1.594  -0.833  -1.334  0.00  0.00    +0.112 C 
ENDROOT
BRANCH  11  21
ATOM     21  O   UNL     1      -0.883   2.810  -0.509  0.00  0.00    -0.480 OA
ATOM     22  H   UNL     1      -1.418   2.981  -1.309  0.00  0.00    +0.295 HD
ENDBRANCH  11  21
BRANCH  13  23
ATOM     23  O   UNL     1      -2.235   1.777  -2.550  0.00  0.00    -0.506 OA
ATOM     24  H   UNL     1      -2.442   1.152  -1.822  0.00  0.00    +0.292 HD
ENDBRANCH  13  23
TORSDOF 2
