REMARK  Name = 
REMARK  2 active torsions:
REMARK  status: ('A' for Active; 'I' for Inactive)
REMARK    1  A    between atoms: C_11  and  O_12
REMARK    2  A    between atoms: C_14  and  O_15
REMARK                            x       y       z     vdW  Elec       q    Type
REMARK                         _______ _______ _______ _____ _____    ______ ____
ROOT
ATOM      1  O   UNL     1       1.130  -1.567  -0.953  0.00  0.00    -0.297 OA
ATOM      2  C   UNL     1       1.616  -0.960   0.002  0.00  0.00    +0.138 C 
ATOM      3  C   UNL     1       1.831  -1.619   1.356  0.00  0.00    +0.075 C 
ATOM      4  C   UNL     1       0.970  -2.851   1.649  0.00  0.00    +0.012 C 
ATOM      5  C   UNL     1      -0.528  -2.757   1.325  0.00  0.00    +0.027 C 
ATOM      6  C   UNL     1      -1.232  -1.473   1.649  0.00  0.00    -0.031 C 
ATOM      7  C   UNL     1      -0.993  -0.668   2.696  0.00  0.00    -0.028 C 
ATOM      8  C   UNL     1      -1.615   0.697   2.818  0.00  0.00    +0.068 C 
ATOM      9  C   UNL     1      -0.591   1.815   2.561  0.00  0.00    +0.236 C 
ATOM     10  O   UNL     1       0.145   1.652   1.339  0.00  0.00    -0.464 OA
ATOM     11  C   UNL     1      -0.527   1.914   0.164  0.00  0.00    +0.290 C 
ATOM     12  C   UNL     1       0.071   1.738  -1.055  0.00  0.00    +0.101 C 
ATOM     13  C   UNL     1      -0.674   2.066  -2.297  0.00  0.00    +0.135 C 
ATOM     14  C   UNL     1      -0.054   2.273  -3.461  0.00  0.00    +0.098 C 
ATOM     15  C   UNL     1       1.409   2.133  -3.558  0.00  0.00    +0.201 C 
ATOM     16  O   UNL     1       1.979   2.525  -4.571  0.00  0.00    -0.286 OA
ATOM     17  C   UNL     1       2.104   1.468  -2.417  0.00  0.00    +0.092 C 
ATOM     18 CL   UNL     1       3.734   0.981  -2.763  0.00  0.00    -0.079 Cl
ATOM     19  C   UNL     1       1.481   1.239  -1.235  0.00  0.00    -0.001 C 
ATOM     20  C   UNL     1       2.180   0.454  -0.138  0.00  0.00    +0.112 C 
ENDROOT
BRANCH  11  21
ATOM     21  O   UNL     1      -1.817   2.405   0.293  0.00  0.00    -0.480 OA
ATOM     22  H   UNL     1      -2.210   2.419  -0.603  0.00  0.00    +0.295 HD
ENDBRANCH  11  21
BRANCH  13  23
ATOM     23  O   UNL     1      -2.053   2.171  -2.197  0.00  0.00    -0.506 OA
ATOM     24  H   UNL     1      -2.419   2.286  -3.095  0.00  0.00    +0.292 HD
ENDBRANCH  13  23
TORSDOF 2
