REMARK  Name = 
REMARK  3 active torsions:
REMARK  status: ('A' for Active; 'I' for Inactive)
REMARK    1  A    between atoms: O_1  and  C_2
REMARK    2  A    between atoms: C_14  and  O_15
REMARK    3  A    between atoms: C_17  and  O_18
REMARK                            x       y       z     vdW  Elec       q    Type
REMARK                         _______ _______ _______ _____ _____    ______ ____
ROOT
ATOM      1  C   UNL     1      -0.452  -2.235   0.967  0.00  0.00    +0.095 C 
ATOM      2  C   UNL     1       0.819  -2.799   0.386  0.00  0.00    +0.074 C 
ATOM      3  C   UNL     1       2.076  -1.914   0.490  0.00  0.00    +0.012 C 
ATOM      4  C   UNL     1       2.308  -1.196   1.831  0.00  0.00    +0.027 C 
ATOM      5  C   UNL     1       1.611   0.137   1.857  0.00  0.00    -0.031 C 
ATOM      6  C   UNL     1       0.597   0.459   2.675  0.00  0.00    -0.028 C 
ATOM      7  C   UNL     1      -0.282   1.679   2.561  0.00  0.00    +0.068 C 
ATOM      8  C   UNL     1      -0.419   2.312   1.167  0.00  0.00    +0.236 C 
ATOM      9  O   UNL     1      -1.022   1.380   0.245  0.00  0.00    -0.461 OA
ATOM     10  C   UNL     1      -0.242   0.993  -0.797  0.00  0.00    +0.343 C 
ATOM     11  O   UNL     1       0.882   1.392  -1.057  0.00  0.00    -0.245 OA
ATOM     12  C   UNL     1      -0.951   0.002  -1.637  0.00  0.00    +0.109 A 
ATOM     13  C   UNL     1      -1.065   0.282  -3.013  0.00  0.00    +0.135 A 
ATOM     14  C   UNL     1      -1.640  -0.637  -3.887  0.00  0.00    +0.093 A 
ATOM     15  C   UNL     1      -2.111  -1.841  -3.385  0.00  0.00    +0.139 A 
ATOM     16  C   UNL     1      -2.024  -2.137  -2.018  0.00  0.00    +0.091 A 
ATOM     17 CL   UNL     1      -2.678  -3.655  -1.480  0.00  0.00    -0.079 Cl
ATOM     18  C   UNL     1      -1.438  -1.219  -1.120  0.00  0.00    +0.017 A 
ATOM     19  C   UNL     1      -1.402  -1.541   0.318  0.00  0.00    +0.051 C 
ENDROOT
BRANCH   1  20
ATOM     20  O   UNL     1      -0.619  -2.553   2.306  0.00  0.00    -0.511 OA
ATOM     21  H   UNL     1      -1.444  -2.153   2.627  0.00  0.00    +0.292 HD
ENDBRANCH   1  20
BRANCH  13  22
ATOM     22  O   UNL     1      -0.641   1.485  -3.508  0.00  0.00    -0.506 OA
ATOM     23  H   UNL     1      -0.641   1.464  -4.480  0.00  0.00    +0.292 HD
ENDBRANCH  13  22
BRANCH  15  24
ATOM     24  O   UNL     1      -2.671  -2.708  -4.284  0.00  0.00    -0.505 OA
ATOM     25  H   UNL     1      -2.948  -3.504  -3.791  0.00  0.00    +0.292 HD
ENDBRANCH  15  24
TORSDOF 3
