REMARK  Name = 
REMARK  3 active torsions:
REMARK  status: ('A' for Active; 'I' for Inactive)
REMARK    1  A    between atoms: O_1  and  C_2
REMARK    2  A    between atoms: C_14  and  O_15
REMARK    3  A    between atoms: C_17  and  O_18
REMARK                            x       y       z     vdW  Elec       q    Type
REMARK                         _______ _______ _______ _____ _____    ______ ____
ROOT
ATOM      1  C   UNL     1       1.916   0.806   1.759  0.00  0.00    +0.095 C 
ATOM      2  C   UNL     1       2.067  -0.521   1.617  0.00  0.00    +0.014 C 
ATOM      3  C   UNL     1       1.614  -1.498   0.564  0.00  0.00    +0.034 C 
ATOM      4  C   UNL     1       0.612  -2.527   1.124  0.00  0.00    +0.031 C 
ATOM      5  C   UNL     1      -0.718  -1.869   1.356  0.00  0.00    -0.031 C 
ATOM      6  C   UNL     1      -1.118  -1.410   2.554  0.00  0.00    -0.028 C 
ATOM      7  C   UNL     1      -2.232  -0.418   2.784  0.00  0.00    +0.068 C 
ATOM      8  C   UNL     1      -2.628   0.440   1.573  0.00  0.00    +0.236 C 
ATOM      9  O   UNL     1      -1.434   0.942   0.942  0.00  0.00    -0.461 OA
ATOM     10  C   UNL     1      -1.607   1.468  -0.283  0.00  0.00    +0.343 C 
ATOM     11  O   UNL     1      -2.684   1.791  -0.769  0.00  0.00    -0.245 OA
ATOM     12  C   UNL     1      -0.352   1.443  -1.093  0.00  0.00    +0.105 A 
ATOM     13  C   UNL     1      -0.536   1.261  -2.483  0.00  0.00    +0.135 A 
ATOM     14  C   UNL     1       0.541   1.166  -3.358  0.00  0.00    +0.093 A 
ATOM     15  C   UNL     1       1.830   1.280  -2.863  0.00  0.00    +0.139 A 
ATOM     16  C   UNL     1       2.051   1.490  -1.492  0.00  0.00    +0.087 A 
ATOM     17 CL   UNL     1       3.697   1.680  -0.957  0.00  0.00    -0.079 Cl
ATOM     18  C   UNL     1       0.967   1.568  -0.576  0.00  0.00    -0.001 A 
ATOM     19  C   UNL     1       1.254   1.860   0.882  0.00  0.00    +0.110 C 
ENDROOT
BRANCH   1  20
ATOM     20  O   UNL     1       2.473   1.328   2.933  0.00  0.00    -0.511 OA
ATOM     21  H   UNL     1       2.375   2.295   2.936  0.00  0.00    +0.292 HD
ENDBRANCH   1  20
BRANCH  13  22
ATOM     22  O   UNL     1      -1.767   1.159  -3.085  0.00  0.00    -0.506 OA
ATOM     23  H   UNL     1      -2.464   1.419  -2.441  0.00  0.00    +0.292 HD
ENDBRANCH  13  22
BRANCH  15  24
ATOM     24  O   UNL     1       2.889   1.199  -3.727  0.00  0.00    -0.505 OA
ATOM     25  H   UNL     1       2.564   1.048  -4.630  0.00  0.00    +0.292 HD
ENDBRANCH  15  24
TORSDOF 3
