REMARK  Name = 
REMARK  2 active torsions:
REMARK  status: ('A' for Active; 'I' for Inactive)
REMARK    1  A    between atoms: C_14  and  O_15
REMARK    2  A    between atoms: C_17  and  O_18
REMARK                            x       y       z     vdW  Elec       q    Type
REMARK                         _______ _______ _______ _____ _____    ______ ____
ROOT
ATOM      1  O   UNL     1       0.676  -1.577  -0.943  0.00  0.00    -0.297 OA
ATOM      2  C   UNL     1       1.196  -1.213   0.112  0.00  0.00    +0.138 C 
ATOM      3  C   UNL     1       1.592  -2.213   1.184  0.00  0.00    +0.075 C 
ATOM      4  C   UNL     1       0.471  -3.181   1.551  0.00  0.00    +0.012 C 
ATOM      5  C   UNL     1      -0.538  -2.607   2.553  0.00  0.00    +0.027 C 
ATOM      6  C   UNL     1      -1.414  -1.529   1.985  0.00  0.00    -0.031 C 
ATOM      7  C   UNL     1      -1.629  -0.337   2.565  0.00  0.00    -0.028 C 
ATOM      8  C   UNL     1      -2.591   0.683   2.009  0.00  0.00    +0.068 C 
ATOM      9  C   UNL     1      -1.974   2.067   1.770  0.00  0.00    +0.236 C 
ATOM     10  O   UNL     1      -0.815   2.064   0.920  0.00  0.00    -0.461 OA
ATOM     11  C   UNL     1      -1.028   1.725  -0.375  0.00  0.00    +0.343 C 
ATOM     12  O   UNL     1      -2.091   1.396  -0.872  0.00  0.00    -0.245 OA
ATOM     13  C   UNL     1       0.241   1.867  -1.129  0.00  0.00    +0.105 A 
ATOM     14  C   UNL     1       0.217   2.711  -2.256  0.00  0.00    +0.135 A 
ATOM     15  C   UNL     1       1.331   2.842  -3.079  0.00  0.00    +0.093 A 
ATOM     16  C   UNL     1       2.475   2.119  -2.780  0.00  0.00    +0.139 A 
ATOM     17  C   UNL     1       2.531   1.283  -1.655  0.00  0.00    +0.087 A 
ATOM     18 CL   UNL     1       4.009   0.412  -1.379  0.00  0.00    -0.079 Cl
ATOM     19  C   UNL     1       1.422   1.156  -0.791  0.00  0.00    -0.001 A 
ATOM     20  C   UNL     1       1.504   0.241   0.414  0.00  0.00    +0.112 C 
ENDROOT
BRANCH  14  21
ATOM     21  O   UNL     1      -0.900   3.449  -2.539  0.00  0.00    -0.506 OA
ATOM     22  H   UNL     1      -0.840   3.799  -3.444  0.00  0.00    +0.292 HD
ENDBRANCH  14  21
BRANCH  16  23
ATOM     23  O   UNL     1       3.539   2.268  -3.630  0.00  0.00    -0.505 OA
ATOM     24  H   UNL     1       4.245   1.670  -3.320  0.00  0.00    +0.292 HD
ENDBRANCH  16  23
TORSDOF 2
