REMARK  Name = 
REMARK  2 active torsions:
REMARK  status: ('A' for Active; 'I' for Inactive)
REMARK    1  A    between atoms: C_11  and  O_12
REMARK    2  A    between atoms: C_17  and  O_18
REMARK                            x       y       z     vdW  Elec       q    Type
REMARK                         _______ _______ _______ _____ _____    ______ ____
ROOT
ATOM      1  O   UNL     1       0.170  -2.595  -1.950  0.00  0.00    -0.297 OA
ATOM      2  C   UNL     1      -0.837  -1.912  -2.155  0.00  0.00    +0.138 C 
ATOM      3  C   UNL     1      -2.190  -2.584  -2.314  0.00  0.00    +0.075 C 
ATOM      4  C   UNL     1      -3.219  -2.213  -1.248  0.00  0.00    +0.012 C 
ATOM      5  C   UNL     1      -2.952  -2.816   0.138  0.00  0.00    +0.027 C 
ATOM      6  C   UNL     1      -1.743  -2.235   0.807  0.00  0.00    -0.031 C 
ATOM      7  C   UNL     1      -1.782  -1.161   1.611  0.00  0.00    -0.028 C 
ATOM      8  C   UNL     1      -0.554  -0.521   2.205  0.00  0.00    +0.068 C 
ATOM      9  C   UNL     1      -0.334   0.886   1.641  0.00  0.00    +0.236 C 
ATOM     10  O   UNL     1      -0.045   0.855   0.237  0.00  0.00    -0.464 OA
ATOM     11  C   UNL     1       1.259   0.562  -0.115  0.00  0.00    +0.290 C 
ATOM     12  C   UNL     1       1.569   0.267  -1.405  0.00  0.00    +0.106 C 
ATOM     13  C   UNL     1       3.042   0.177  -1.713  0.00  0.00    +0.197 C 
ATOM     14  O   UNL     1       3.903   0.009  -0.851  0.00  0.00    -0.287 OA
ATOM     15  C   UNL     1       3.451   0.392  -3.114  0.00  0.00    +0.098 C 
ATOM     16  C   UNL     1       2.527   0.436  -4.078  0.00  0.00    +0.139 C 
ATOM     17  C   UNL     1       1.117   0.179  -3.810  0.00  0.00    +0.087 C 
ATOM     18 CL   UNL     1       0.102  -0.102  -5.203  0.00  0.00    -0.079 Cl
ATOM     19  C   UNL     1       0.635   0.075  -2.546  0.00  0.00    -0.001 C 
ATOM     20  C   UNL     1      -0.790  -0.388  -2.284  0.00  0.00    +0.112 C 
ENDROOT
BRANCH  11  21
ATOM     21  O   UNL     1       2.212   0.665   0.888  0.00  0.00    -0.480 OA
ATOM     22  H   UNL     1       3.078   0.360   0.539  0.00  0.00    +0.295 HD
ENDBRANCH  11  21
BRANCH  16  23
ATOM     23  O   UNL     1       2.867   0.674  -5.396  0.00  0.00    -0.505 OA
ATOM     24  H   UNL     1       3.830   0.780  -5.468  0.00  0.00    +0.292 HD
ENDBRANCH  16  23
TORSDOF 2
