REMARK  Name = 
REMARK  2 active torsions:
REMARK  status: ('A' for Active; 'I' for Inactive)
REMARK    1  A    between atoms: C_11  and  O_12
REMARK    2  A    between atoms: C_14  and  O_15
REMARK                            x       y       z     vdW  Elec       q    Type
REMARK                         _______ _______ _______ _____ _____    ______ ____
ROOT
ATOM      1  O   UNL     1      -1.780  -2.675  -1.224  0.00  0.00    -0.297 OA
ATOM      2  C   UNL     1      -1.121  -1.813  -0.639  0.00  0.00    +0.138 C 
ATOM      3  C   UNL     1      -1.264  -1.625   0.858  0.00  0.00    +0.075 C 
ATOM      4  C   UNL     1      -0.677  -2.787   1.665  0.00  0.00    +0.012 C 
ATOM      5  C   UNL     1       0.818  -3.065   1.437  0.00  0.00    +0.027 C 
ATOM      6  C   UNL     1       1.732  -1.875   1.518  0.00  0.00    -0.031 C 
ATOM      7  C   UNL     1       1.603  -0.850   2.376  0.00  0.00    -0.028 C 
ATOM      8  C   UNL     1       2.342   0.462   2.303  0.00  0.00    +0.068 C 
ATOM      9  C   UNL     1       2.754   0.947   0.901  0.00  0.00    +0.236 C 
ATOM     10  O   UNL     1       1.703   0.865  -0.074  0.00  0.00    -0.464 OA
ATOM     11  C   UNL     1       0.649   1.743   0.063  0.00  0.00    +0.290 C 
ATOM     12  C   UNL     1      -0.490   1.598  -0.678  0.00  0.00    +0.101 C 
ATOM     13  C   UNL     1      -1.546   2.632  -0.616  0.00  0.00    +0.135 C 
ATOM     14  C   UNL     1      -2.365   2.848  -1.650  0.00  0.00    +0.098 C 
ATOM     15  C   UNL     1      -2.263   1.997  -2.854  0.00  0.00    +0.201 C 
ATOM     16  O   UNL     1      -2.825   2.351  -3.885  0.00  0.00    -0.286 OA
ATOM     17  C   UNL     1      -1.533   0.701  -2.700  0.00  0.00    +0.092 C 
ATOM     18 CL   UNL     1      -1.870  -0.470  -3.930  0.00  0.00    -0.079 Cl
ATOM     19  C   UNL     1      -0.734   0.466  -1.631  0.00  0.00    -0.001 C 
ATOM     20  C   UNL     1      -0.146  -0.914  -1.393  0.00  0.00    +0.112 C 
ENDROOT
BRANCH  11  21
ATOM     21  O   UNL     1       0.838   2.806   0.930  0.00  0.00    -0.480 OA
ATOM     22  H   UNL     1      -0.016   3.276   1.004  0.00  0.00    +0.295 HD
ENDBRANCH  11  21
BRANCH  13  23
ATOM     23  O   UNL     1      -1.614   3.392   0.538  0.00  0.00    -0.506 OA
ATOM     24  H   UNL     1      -2.384   3.989   0.471  0.00  0.00    +0.292 HD
ENDBRANCH  13  23
TORSDOF 2
