REMARK  Name = 
REMARK  2 active torsions:
REMARK  status: ('A' for Active; 'I' for Inactive)
REMARK    1  A    between atoms: C_14  and  O_15
REMARK    2  A    between atoms: C_17  and  O_18
REMARK                            x       y       z     vdW  Elec       q    Type
REMARK                         _______ _______ _______ _____ _____    ______ ____
ROOT
ATOM      1  O   UNL     1      -2.668   0.541  -0.240  0.00  0.00    -0.297 OA
ATOM      2  C   UNL     1      -1.673   0.885  -0.878  0.00  0.00    +0.138 C 
ATOM      3  C   UNL     1      -0.577   1.749  -0.277  0.00  0.00    +0.075 C 
ATOM      4  C   UNL     1      -0.643   1.942   1.241  0.00  0.00    +0.012 C 
ATOM      5  C   UNL     1      -0.698   0.669   2.099  0.00  0.00    +0.027 C 
ATOM      6  C   UNL     1       0.294  -0.422   1.811  0.00  0.00    -0.031 C 
ATOM      7  C   UNL     1       1.535  -0.275   1.324  0.00  0.00    -0.028 C 
ATOM      8  C   UNL     1       2.412  -1.440   0.944  0.00  0.00    +0.068 C 
ATOM      9  C   UNL     1       2.490  -1.589  -0.577  0.00  0.00    +0.236 C 
ATOM     10  O   UNL     1       1.198  -1.987  -1.069  0.00  0.00    -0.461 OA
ATOM     11  C   UNL     1       0.772  -1.386  -2.204  0.00  0.00    +0.343 C 
ATOM     12  O   UNL     1       1.352  -0.528  -2.847  0.00  0.00    -0.245 OA
ATOM     13  C   UNL     1      -0.592  -1.868  -2.521  0.00  0.00    +0.105 A 
ATOM     14  C   UNL     1      -0.775  -3.241  -2.768  0.00  0.00    +0.135 A 
ATOM     15  C   UNL     1      -2.036  -3.746  -3.065  0.00  0.00    +0.093 A 
ATOM     16  C   UNL     1      -3.113  -2.873  -3.129  0.00  0.00    +0.139 A 
ATOM     17  C   UNL     1      -2.951  -1.497  -2.911  0.00  0.00    +0.087 A 
ATOM     18 CL   UNL     1      -4.362  -0.497  -3.043  0.00  0.00    -0.079 Cl
ATOM     19  C   UNL     1      -1.681  -0.962  -2.611  0.00  0.00    -0.001 A 
ATOM     20  C   UNL     1      -1.506   0.519  -2.345  0.00  0.00    +0.112 C 
ENDROOT
BRANCH  14  21
ATOM     21  O   UNL     1       0.294  -4.094  -2.744  0.00  0.00    -0.506 OA
ATOM     22  H   UNL     1      -0.012  -5.005  -2.893  0.00  0.00    +0.292 HD
ENDBRANCH  14  21
BRANCH  16  23
ATOM     23  O   UNL     1      -4.334  -3.423  -3.422  0.00  0.00    -0.505 OA
ATOM     24  H   UNL     1      -4.990  -2.700  -3.392  0.00  0.00    +0.292 HD
ENDBRANCH  16  23
TORSDOF 2
