REMARK  Name = 
REMARK  3 active torsions:
REMARK  status: ('A' for Active; 'I' for Inactive)
REMARK    1  A    between atoms: O_1  and  C_2
REMARK    2  A    between atoms: C_11  and  O_12
REMARK    3  A    between atoms: C_17  and  O_18
REMARK                            x       y       z     vdW  Elec       q    Type
REMARK                         _______ _______ _______ _____ _____    ______ ____
ROOT
ATOM      1  C   UNL     1       1.620   0.369   2.180  0.00  0.00    +0.095 C 
ATOM      2  C   UNL     1       1.256  -0.926   2.244  0.00  0.00    +0.014 C 
ATOM      3  C   UNL     1       0.725  -1.878   1.204  0.00  0.00    +0.034 C 
ATOM      4  C   UNL     1      -0.737  -2.265   1.476  0.00  0.00    +0.031 C 
ATOM      5  C   UNL     1      -1.628  -1.103   1.152  0.00  0.00    -0.031 C 
ATOM      6  C   UNL     1      -2.186  -0.302   2.074  0.00  0.00    -0.028 C 
ATOM      7  C   UNL     1      -2.852   1.022   1.796  0.00  0.00    +0.068 C 
ATOM      8  C   UNL     1      -2.554   1.644   0.426  0.00  0.00    +0.236 C 
ATOM      9  O   UNL     1      -1.144   1.909   0.315  0.00  0.00    -0.464 OA
ATOM     10  C   UNL     1      -0.678   1.912  -0.983  0.00  0.00    +0.290 C 
ATOM     11  C   UNL     1       0.553   1.446  -1.310  0.00  0.00    +0.106 C 
ATOM     12  C   UNL     1       0.907   1.507  -2.782  0.00  0.00    +0.197 C 
ATOM     13  O   UNL     1       0.517   2.352  -3.579  0.00  0.00    -0.287 OA
ATOM     14  C   UNL     1       1.829   0.457  -3.261  0.00  0.00    +0.098 C 
ATOM     15  C   UNL     1       2.603  -0.185  -2.380  0.00  0.00    +0.139 C 
ATOM     16  C   UNL     1       2.602   0.160  -0.964  0.00  0.00    +0.087 C 
ATOM     17 CL   UNL     1       3.979  -0.377  -0.037  0.00  0.00    -0.079 Cl
ATOM     18  C   UNL     1       1.607   0.901  -0.410  0.00  0.00    -0.001 C 
ATOM     19  C   UNL     1       1.669   1.371   1.032  0.00  0.00    +0.110 C 
ENDROOT
BRANCH   1  20
ATOM     20  O   UNL     1       2.057   0.977   3.359  0.00  0.00    -0.511 OA
ATOM     21  H   UNL     1       2.055   0.325   4.079  0.00  0.00    +0.292 HD
ENDBRANCH   1  20
BRANCH  10  22
ATOM     22  O   UNL     1      -1.537   2.394  -1.949  0.00  0.00    -0.480 OA
ATOM     23  H   UNL     1      -1.895   3.224  -1.592  0.00  0.00    +0.295 HD
ENDBRANCH  10  22
BRANCH  15  24
ATOM     24  O   UNL     1       3.480  -1.177  -2.771  0.00  0.00    -0.505 OA
ATOM     25  H   UNL     1       3.432  -1.287  -3.735  0.00  0.00    +0.292 HD
ENDBRANCH  15  24
TORSDOF 3
