REMARK  Name = 
REMARK  3 active torsions:
REMARK  status: ('A' for Active; 'I' for Inactive)
REMARK    1  A    between atoms: O_1  and  C_2
REMARK    2  A    between atoms: C_11  and  O_12
REMARK    3  A    between atoms: C_17  and  O_18
REMARK                            x       y       z     vdW  Elec       q    Type
REMARK                         _______ _______ _______ _____ _____    ______ ____
ROOT
ATOM      1  C   UNL     1      -1.129  -1.411   0.327  0.00  0.00    +0.095 C 
ATOM      2  C   UNL     1      -0.718  -2.669   0.554  0.00  0.00    +0.014 C 
ATOM      3  C   UNL     1       0.482  -3.332  -0.070  0.00  0.00    +0.034 C 
ATOM      4  C   UNL     1       1.649  -3.514   0.918  0.00  0.00    +0.031 C 
ATOM      5  C   UNL     1       1.882  -2.305   1.784  0.00  0.00    -0.031 C 
ATOM      6  C   UNL     1       2.628  -1.244   1.441  0.00  0.00    -0.028 C 
ATOM      7  C   UNL     1       2.695   0.002   2.285  0.00  0.00    +0.068 C 
ATOM      8  C   UNL     1       2.141   1.241   1.571  0.00  0.00    +0.236 C 
ATOM      9  O   UNL     1       0.737   1.080   1.301  0.00  0.00    -0.464 OA
ATOM     10  C   UNL     1       0.187   2.199   0.697  0.00  0.00    +0.290 C 
ATOM     11  C   UNL     1      -0.748   2.084  -0.287  0.00  0.00    +0.106 C 
ATOM     12  C   UNL     1      -1.343   3.390  -0.770  0.00  0.00    +0.197 C 
ATOM     13  O   UNL     1      -0.884   4.489  -0.462  0.00  0.00    -0.287 OA
ATOM     14  C   UNL     1      -2.544   3.326  -1.618  0.00  0.00    +0.098 C 
ATOM     15  C   UNL     1      -2.997   2.149  -2.048  0.00  0.00    +0.139 C 
ATOM     16  C   UNL     1      -2.322   0.897  -1.751  0.00  0.00    +0.087 C 
ATOM     17 CL   UNL     1      -2.971  -0.516  -2.543  0.00  0.00    -0.079 Cl
ATOM     18  C   UNL     1      -1.251   0.834  -0.921  0.00  0.00    -0.001 C 
ATOM     19  C   UNL     1      -0.512  -0.481  -0.706  0.00  0.00    +0.110 C 
ENDROOT
BRANCH   1  20
ATOM     20  O   UNL     1      -2.164  -0.923   1.109  0.00  0.00    -0.511 OA
ATOM     21  H   UNL     1      -1.910  -0.025   1.387  0.00  0.00    +0.292 HD
ENDBRANCH   1  20
BRANCH  10  22
ATOM     22  O   UNL     1       0.605   3.417   1.213  0.00  0.00    -0.480 OA
ATOM     23  H   UNL     1       0.181   4.149   0.713  0.00  0.00    +0.295 HD
ENDBRANCH  10  22
BRANCH  15  24
ATOM     24  O   UNL     1      -4.135   2.111  -2.833  0.00  0.00    -0.505 OA
ATOM     25  H   UNL     1      -4.321   1.176  -3.046  0.00  0.00    +0.292 HD
ENDBRANCH  15  24
TORSDOF 3
