REMARK  Name = 
REMARK  3 active torsions:
REMARK  status: ('A' for Active; 'I' for Inactive)
REMARK    1  A    between atoms: O_1  and  C_2
REMARK    2  A    between atoms: C_11  and  O_12
REMARK    3  A    between atoms: C_17  and  O_18
REMARK                            x       y       z     vdW  Elec       q    Type
REMARK                         _______ _______ _______ _____ _____    ______ ____
ROOT
ATOM      1  C   UNL     1       0.434  -1.782  -0.782  0.00  0.00    +0.095 C 
ATOM      2  C   UNL     1       1.720  -2.106  -1.018  0.00  0.00    +0.014 C 
ATOM      3  C   UNL     1       2.825  -1.472  -1.835  0.00  0.00    +0.034 C 
ATOM      4  C   UNL     1       2.744  -0.021  -2.329  0.00  0.00    +0.031 C 
ATOM      5  C   UNL     1       2.632   1.070  -1.298  0.00  0.00    -0.031 C 
ATOM      6  C   UNL     1       2.742   0.933   0.034  0.00  0.00    -0.028 C 
ATOM      7  C   UNL     1       2.304   1.998   1.003  0.00  0.00    +0.068 C 
ATOM      8  C   UNL     1       1.034   1.558   1.745  0.00  0.00    +0.236 C 
ATOM      9  O   UNL     1      -0.006   1.316   0.787  0.00  0.00    -0.464 OA
ATOM     10  C   UNL     1      -1.153   0.769   1.326  0.00  0.00    +0.290 C 
ATOM     11  C   UNL     1      -1.983   0.006   0.564  0.00  0.00    +0.106 C 
ATOM     12  C   UNL     1      -3.293  -0.363   1.212  0.00  0.00    +0.197 C 
ATOM     13  O   UNL     1      -3.482  -0.319   2.426  0.00  0.00    -0.287 OA
ATOM     14  C   UNL     1      -4.411  -0.715   0.318  0.00  0.00    +0.098 C 
ATOM     15  C   UNL     1      -4.186  -0.915  -0.984  0.00  0.00    +0.139 C 
ATOM     16  C   UNL     1      -2.843  -0.890  -1.551  0.00  0.00    +0.087 C 
ATOM     17 CL   UNL     1      -2.683  -1.508  -3.175  0.00  0.00    -0.079 Cl
ATOM     18  C   UNL     1      -1.770  -0.475  -0.830  0.00  0.00    -0.001 C 
ATOM     19  C   UNL     1      -0.342  -0.607  -1.365  0.00  0.00    +0.110 C 
ENDROOT
BRANCH   1  20
ATOM     20  O   UNL     1      -0.324  -2.619   0.034  0.00  0.00    -0.511 OA
ATOM     21  H   UNL     1       0.236  -3.341   0.365  0.00  0.00    +0.292 HD
ENDBRANCH   1  20
BRANCH  10  22
ATOM     22  O   UNL     1      -1.431   1.118   2.641  0.00  0.00    -0.480 OA
ATOM     23  H   UNL     1      -2.226   0.624   2.939  0.00  0.00    +0.295 HD
ENDBRANCH  10  22
BRANCH  15  24
ATOM     24  O   UNL     1      -5.216  -1.210  -1.857  0.00  0.00    -0.505 OA
ATOM     25  H   UNL     1      -6.057  -1.234  -1.371  0.00  0.00    +0.292 HD
ENDBRANCH  15  24
TORSDOF 3
