REMARK  Name = 
REMARK  2 active torsions:
REMARK  status: ('A' for Active; 'I' for Inactive)
REMARK    1  A    between atoms: C_14  and  O_15
REMARK    2  A    between atoms: C_17  and  O_18
REMARK                            x       y       z     vdW  Elec       q    Type
REMARK                         _______ _______ _______ _____ _____    ______ ____
ROOT
ATOM      1  O   UNL     1      -1.225   1.190  -0.105  0.00  0.00    -0.297 OA
ATOM      2  C   UNL     1      -1.588   0.176   0.496  0.00  0.00    +0.138 C 
ATOM      3  C   UNL     1      -2.337   0.289   1.817  0.00  0.00    +0.075 C 
ATOM      4  C   UNL     1      -1.628  -0.367   3.001  0.00  0.00    +0.012 C 
ATOM      5  C   UNL     1      -0.487   0.463   3.605  0.00  0.00    +0.027 C 
ATOM      6  C   UNL     1       0.599   0.774   2.623  0.00  0.00    -0.031 C 
ATOM      7  C   UNL     1       1.693   0.021   2.438  0.00  0.00    -0.028 C 
ATOM      8  C   UNL     1       2.720   0.320   1.378  0.00  0.00    +0.068 C 
ATOM      9  C   UNL     1       2.726  -0.744   0.280  0.00  0.00    +0.236 C 
ATOM     10  O   UNL     1       1.478  -0.702  -0.434  0.00  0.00    -0.461 OA
ATOM     11  C   UNL     1       1.374  -1.609  -1.426  0.00  0.00    +0.343 C 
ATOM     12  O   UNL     1       2.241  -2.397  -1.780  0.00  0.00    -0.245 OA
ATOM     13  C   UNL     1       0.097  -1.475  -2.167  0.00  0.00    +0.105 A 
ATOM     14  C   UNL     1       0.181  -1.594  -3.569  0.00  0.00    +0.135 A 
ATOM     15  C   UNL     1      -0.940  -1.442  -4.377  0.00  0.00    +0.093 A 
ATOM     16  C   UNL     1      -2.174  -1.201  -3.786  0.00  0.00    +0.139 A 
ATOM     17  C   UNL     1      -2.295  -1.124  -2.389  0.00  0.00    +0.087 A 
ATOM     18 CL   UNL     1      -3.877  -0.867  -1.711  0.00  0.00    -0.079 Cl
ATOM     19  C   UNL     1      -1.163  -1.271  -1.550  0.00  0.00    -0.001 A 
ATOM     20  C   UNL     1      -1.336  -1.226  -0.043  0.00  0.00    +0.112 C 
ENDROOT
BRANCH  14  21
ATOM     21  O   UNL     1       1.348  -1.873  -4.235  0.00  0.00    -0.506 OA
ATOM     22  H   UNL     1       2.015  -2.201  -3.592  0.00  0.00    +0.292 HD
ENDBRANCH  14  21
BRANCH  16  23
ATOM     23  O   UNL     1      -3.281  -1.060  -4.580  0.00  0.00    -0.505 OA
ATOM     24  H   UNL     1      -3.014  -1.072  -5.514  0.00  0.00    +0.292 HD
ENDBRANCH  16  23
TORSDOF 2
