REMARK  Name = 
REMARK  2 active torsions:
REMARK  status: ('A' for Active; 'I' for Inactive)
REMARK    1  A    between atoms: C_11  and  O_12
REMARK    2  A    between atoms: C_14  and  O_15
REMARK                            x       y       z     vdW  Elec       q    Type
REMARK                         _______ _______ _______ _____ _____    ______ ____
ROOT
ATOM      1  O   UNL     1      -2.714   0.504  -1.255  0.00  0.00    -0.297 OA
ATOM      2  C   UNL     1      -1.928  -0.138  -0.551  0.00  0.00    +0.138 C 
ATOM      3  C   UNL     1      -2.355  -0.624   0.821  0.00  0.00    +0.075 C 
ATOM      4  C   UNL     1      -2.556  -2.139   0.950  0.00  0.00    +0.012 C 
ATOM      5  C   UNL     1      -1.301  -3.000   1.192  0.00  0.00    +0.027 C 
ATOM      6  C   UNL     1      -0.363  -2.372   2.181  0.00  0.00    -0.031 C 
ATOM      7  C   UNL     1       0.925  -2.111   1.904  0.00  0.00    -0.028 C 
ATOM      8  C   UNL     1       1.732  -1.105   2.683  0.00  0.00    +0.068 C 
ATOM      9  C   UNL     1       2.048   0.129   1.817  0.00  0.00    +0.236 C 
ATOM     10  O   UNL     1       0.844   0.584   1.174  0.00  0.00    -0.464 OA
ATOM     11  C   UNL     1       1.020   1.745   0.458  0.00  0.00    +0.290 C 
ATOM     12  C   UNL     1       0.685   1.854  -0.865  0.00  0.00    +0.101 C 
ATOM     13  C   UNL     1       0.896   3.144  -1.570  0.00  0.00    +0.135 C 
ATOM     14  C   UNL     1       0.957   3.222  -2.902  0.00  0.00    +0.098 C 
ATOM     15  C   UNL     1       0.770   2.016  -3.726  0.00  0.00    +0.201 C 
ATOM     16  O   UNL     1       1.039   2.065  -4.922  0.00  0.00    -0.286 OA
ATOM     17  C   UNL     1       0.217   0.807  -3.045  0.00  0.00    +0.092 C 
ATOM     18 CL   UNL     1      -0.336  -0.430  -4.129  0.00  0.00    -0.079 Cl
ATOM     19  C   UNL     1       0.133   0.723  -1.695  0.00  0.00    -0.001 C 
ATOM     20  C   UNL     1      -0.532  -0.478  -1.045  0.00  0.00    +0.112 C 
ENDROOT
BRANCH  11  21
ATOM     21  O   UNL     1       1.534   2.798   1.194  0.00  0.00    -0.480 OA
ATOM     22  H   UNL     1       1.442   3.603   0.648  0.00  0.00    +0.295 HD
ENDBRANCH  11  21
BRANCH  13  23
ATOM     23  O   UNL     1       1.047   4.274  -0.783  0.00  0.00    -0.506 OA
ATOM     24  H   UNL     1       1.078   5.056  -1.367  0.00  0.00    +0.292 HD
ENDBRANCH  13  23
TORSDOF 2
