REMARK  Name = 
REMARK  1 active torsions:
REMARK  status: ('A' for Active; 'I' for Inactive)
REMARK    1  A    between atoms: C_14  and  O_15
REMARK                            x       y       z     vdW  Elec       q    Type
REMARK                         _______ _______ _______ _____ _____    ______ ____
ROOT
ATOM      1  O   UNL     1       0.176  -3.157  -1.249  0.00  0.00    -0.297 OA
ATOM      2  C   UNL     1      -0.869  -2.515  -1.174  0.00  0.00    +0.138 C 
ATOM      3  C   UNL     1      -1.991  -2.914  -0.227  0.00  0.00    +0.075 C 
ATOM      4  C   UNL     1      -1.561  -3.274   1.195  0.00  0.00    +0.012 C 
ATOM      5  C   UNL     1      -0.426  -2.453   1.819  0.00  0.00    +0.027 C 
ATOM      6  C   UNL     1      -0.452  -0.955   1.691  0.00  0.00    -0.031 C 
ATOM      7  C   UNL     1      -1.510  -0.154   1.498  0.00  0.00    -0.028 C 
ATOM      8  C   UNL     1      -1.457   1.328   1.209  0.00  0.00    +0.068 C 
ATOM      9  C   UNL     1      -0.191   1.870   0.526  0.00  0.00    +0.236 C 
ATOM     10  O   UNL     1      -0.081   1.346  -0.813  0.00  0.00    -0.461 OA
ATOM     11  C   UNL     1       0.977   0.526  -1.052  0.00  0.00    +0.343 C 
ATOM     12  O   UNL     1       1.838   0.193  -0.252  0.00  0.00    -0.245 OA
ATOM     13  C   UNL     1       0.949   0.070  -2.470  0.00  0.00    +0.102 C 
ATOM     14  C   UNL     1       1.927   0.567  -3.252  0.00  0.00    +0.116 C 
ATOM     15  C   UNL     1       2.134   0.137  -4.671  0.00  0.00    +0.154 C 
ATOM     16  C   UNL     1       1.195  -0.956  -5.138  0.00  0.00    +0.182 C 
ATOM     17  O   UNL     1       1.325  -1.427  -6.270  0.00  0.00    -0.291 OA
ATOM     18  C   UNL     1       0.103  -1.410  -4.223  0.00  0.00    +0.088 C 
ATOM     19 CL   UNL     1      -0.982  -2.590  -4.884  0.00  0.00    -0.080 Cl
ATOM     20  C   UNL     1      -0.020  -0.912  -2.974  0.00  0.00    -0.001 C 
ATOM     21  C   UNL     1      -1.171  -1.314  -2.071  0.00  0.00    +0.112 C 
ENDROOT
BRANCH  14  22
ATOM     22  O   UNL     1       2.814   1.522  -2.782  0.00  0.00    -0.510 OA
ATOM     23  H   UNL     1       3.551   1.630  -3.410  0.00  0.00    +0.292 HD
ENDBRANCH  14  22
TORSDOF 1
