REMARK  Name = 
REMARK  1 active torsions:
REMARK  status: ('A' for Active; 'I' for Inactive)
REMARK    1  A    between atoms: C_14  and  O_15
REMARK                            x       y       z     vdW  Elec       q    Type
REMARK                         _______ _______ _______ _____ _____    ______ ____
ROOT
ATOM      1  O   UNL     1      -1.605   1.064   0.064  0.00  0.00    -0.297 OA
ATOM      2  C   UNL     1      -1.815  -0.037   0.579  0.00  0.00    +0.138 C 
ATOM      3  C   UNL     1      -2.502  -0.126   1.930  0.00  0.00    +0.075 C 
ATOM      4  C   UNL     1      -1.690  -0.814   3.024  0.00  0.00    +0.012 C 
ATOM      5  C   UNL     1      -0.475  -0.017   3.516  0.00  0.00    +0.027 C 
ATOM      6  C   UNL     1       0.632   0.038   2.504  0.00  0.00    -0.031 C 
ATOM      7  C   UNL     1       1.605  -0.883   2.431  0.00  0.00    -0.028 C 
ATOM      8  C   UNL     1       2.705  -0.976   1.404  0.00  0.00    +0.068 C 
ATOM      9  C   UNL     1       2.684   0.007   0.226  0.00  0.00    +0.236 C 
ATOM     10  O   UNL     1       1.472  -0.032  -0.546  0.00  0.00    -0.461 OA
ATOM     11  C   UNL     1       1.286  -1.124  -1.325  0.00  0.00    +0.343 C 
ATOM     12  O   UNL     1       1.978  -2.130  -1.355  0.00  0.00    -0.245 OA
ATOM     13  C   UNL     1       0.062  -0.934  -2.147  0.00  0.00    +0.102 C 
ATOM     14  C   UNL     1       0.269  -0.586  -3.431  0.00  0.00    +0.116 C 
ATOM     15  C   UNL     1      -0.849  -0.411  -4.412  0.00  0.00    +0.154 C 
ATOM     16  C   UNL     1      -2.206  -0.838  -3.888  0.00  0.00    +0.182 C 
ATOM     17  O   UNL     1      -3.162  -0.927  -4.661  0.00  0.00    -0.291 OA
ATOM     18  C   UNL     1      -2.358  -1.113  -2.427  0.00  0.00    +0.088 C 
ATOM     19 CL   UNL     1      -3.979  -1.352  -1.867  0.00  0.00    -0.080 Cl
ATOM     20  C   UNL     1      -1.286  -1.137  -1.607  0.00  0.00    -0.001 C 
ATOM     21  C   UNL     1      -1.431  -1.348  -0.109  0.00  0.00    +0.112 C 
ENDROOT
BRANCH  14  22
ATOM     22  O   UNL     1       1.546  -0.369  -3.925  0.00  0.00    -0.510 OA
ATOM     23  H   UNL     1       1.502  -0.141  -4.871  0.00  0.00    +0.292 HD
ENDBRANCH  14  22
TORSDOF 1
