REMARK  Name = 
REMARK  2 active torsions:
REMARK  status: ('A' for Active; 'I' for Inactive)
REMARK    1  A    between atoms: C_11  and  O_12
REMARK    2  A    between atoms: C_17  and  O_18
REMARK                            x       y       z     vdW  Elec       q    Type
REMARK                         _______ _______ _______ _____ _____    ______ ____
ROOT
ATOM      1  O   UNL     1      -2.692  -0.679  -1.390  0.00  0.00    -0.297 OA
ATOM      2  C   UNL     1      -1.958   0.224  -0.985  0.00  0.00    +0.138 C 
ATOM      3  C   UNL     1      -2.171   0.894   0.363  0.00  0.00    +0.075 C 
ATOM      4  C   UNL     1      -3.046   0.130   1.363  0.00  0.00    +0.012 C 
ATOM      5  C   UNL     1      -2.757  -1.367   1.560  0.00  0.00    +0.027 C 
ATOM      6  C   UNL     1      -1.319  -1.793   1.557  0.00  0.00    -0.031 C 
ATOM      7  C   UNL     1      -0.299  -1.138   2.131  0.00  0.00    -0.028 C 
ATOM      8  C   UNL     1       1.139  -1.517   1.894  0.00  0.00    +0.068 C 
ATOM      9  C   UNL     1       1.835  -0.494   0.984  0.00  0.00    +0.236 C 
ATOM     10  O   UNL     1       1.150  -0.307  -0.264  0.00  0.00    -0.464 OA
ATOM     11  C   UNL     1       1.337  -1.277  -1.230  0.00  0.00    +0.290 C 
ATOM     12  C   UNL     1       0.672  -1.210  -2.419  0.00  0.00    +0.106 C 
ATOM     13  C   UNL     1       1.005  -2.308  -3.404  0.00  0.00    +0.197 C 
ATOM     14  O   UNL     1       1.702  -3.281  -3.119  0.00  0.00    -0.287 OA
ATOM     15  C   UNL     1       0.500  -2.184  -4.781  0.00  0.00    +0.098 C 
ATOM     16  C   UNL     1      -0.307  -1.175  -5.114  0.00  0.00    +0.139 C 
ATOM     17  C   UNL     1      -0.758  -0.189  -4.143  0.00  0.00    +0.087 C 
ATOM     18 CL   UNL     1      -1.937   0.967  -4.717  0.00  0.00    -0.079 Cl
ATOM     19  C   UNL     1      -0.318  -0.182  -2.858  0.00  0.00    -0.001 C 
ATOM     20  C   UNL     1      -0.857   0.829  -1.858  0.00  0.00    +0.112 C 
ENDROOT
BRANCH  11  21
ATOM     21  O   UNL     1       2.246  -2.279  -0.922  0.00  0.00    -0.480 OA
ATOM     22  H   UNL     1       2.255  -2.944  -1.644  0.00  0.00    +0.295 HD
ENDBRANCH  11  21
BRANCH  16  23
ATOM     23  O   UNL     1      -0.776  -1.026  -6.405  0.00  0.00    -0.505 OA
ATOM     24  H   UNL     1      -0.459  -1.761  -6.956  0.00  0.00    +0.292 HD
ENDBRANCH  16  23
TORSDOF 2
