REMARK  Name = 
REMARK  2 active torsions:
REMARK  status: ('A' for Active; 'I' for Inactive)
REMARK    1  A    between atoms: C_11  and  O_12
REMARK    2  A    between atoms: C_17  and  O_18
REMARK                            x       y       z     vdW  Elec       q    Type
REMARK                         _______ _______ _______ _____ _____    ______ ____
ROOT
ATOM      1  O   UNL     1      -0.654  -0.556  -1.980  0.00  0.00    -0.297 OA
ATOM      2  C   UNL     1       0.203  -1.026  -1.230  0.00  0.00    +0.138 C 
ATOM      3  C   UNL     1       0.283  -2.524  -0.954  0.00  0.00    +0.075 C 
ATOM      4  C   UNL     1      -1.087  -3.198  -0.861  0.00  0.00    +0.012 C 
ATOM      5  C   UNL     1      -1.696  -3.207   0.547  0.00  0.00    +0.027 C 
ATOM      6  C   UNL     1      -1.669  -1.869   1.224  0.00  0.00    -0.031 C 
ATOM      7  C   UNL     1      -2.679  -0.987   1.187  0.00  0.00    -0.028 C 
ATOM      8  C   UNL     1      -2.684   0.406   1.771  0.00  0.00    +0.068 C 
ATOM      9  C   UNL     1      -1.358   0.931   2.339  0.00  0.00    +0.236 C 
ATOM     10  O   UNL     1      -0.347   1.048   1.327  0.00  0.00    -0.464 OA
ATOM     11  C   UNL     1      -0.410   2.172   0.526  0.00  0.00    +0.290 C 
ATOM     12  C   UNL     1       0.362   2.271  -0.593  0.00  0.00    +0.106 C 
ATOM     13  C   UNL     1       0.252   3.587  -1.337  0.00  0.00    +0.197 C 
ATOM     14  O   UNL     1      -0.569   4.457  -1.047  0.00  0.00    -0.287 OA
ATOM     15  C   UNL     1       1.198   3.844  -2.433  0.00  0.00    +0.098 C 
ATOM     16  C   UNL     1       2.054   2.898  -2.815  0.00  0.00    +0.139 C 
ATOM     17  C   UNL     1       2.081   1.578  -2.210  0.00  0.00    +0.087 C 
ATOM     18 CL   UNL     1       3.159   0.431  -2.967  0.00  0.00    -0.079 Cl
ATOM     19  C   UNL     1       1.294   1.246  -1.155  0.00  0.00    -0.001 C 
ATOM     20  C   UNL     1       1.304  -0.170  -0.600  0.00  0.00    +0.112 C 
ENDROOT
BRANCH  11  21
ATOM     21  O   UNL     1      -1.262   3.181   0.953  0.00  0.00    -0.480 OA
ATOM     22  H   UNL     1      -1.264   3.907   0.291  0.00  0.00    +0.295 HD
ENDBRANCH  11  21
BRANCH  16  23
ATOM     23  O   UNL     1       2.937   3.168  -3.846  0.00  0.00    -0.505 OA
ATOM     24  H   UNL     1       3.432   2.350  -4.038  0.00  0.00    +0.292 HD
ENDBRANCH  16  23
TORSDOF 2
