REMARK  Name = 
REMARK  2 active torsions:
REMARK  status: ('A' for Active; 'I' for Inactive)
REMARK    1  A    between atoms: C_11  and  O_12
REMARK    2  A    between atoms: C_17  and  O_18
REMARK                            x       y       z     vdW  Elec       q    Type
REMARK                         _______ _______ _______ _____ _____    ______ ____
ROOT
ATOM      1  O   UNL     1       0.953  -2.512   1.164  0.00  0.00    -0.297 OA
ATOM      2  C   UNL     1      -0.096  -1.968   0.802  0.00  0.00    +0.138 C 
ATOM      3  C   UNL     1      -0.860  -2.467  -0.420  0.00  0.00    +0.075 C 
ATOM      4  C   UNL     1       0.011  -3.186  -1.459  0.00  0.00    +0.012 C 
ATOM      5  C   UNL     1       0.453  -2.281  -2.620  0.00  0.00    +0.027 C 
ATOM      6  C   UNL     1       1.231  -1.051  -2.251  0.00  0.00    -0.031 C 
ATOM      7  C   UNL     1       2.264  -1.024  -1.395  0.00  0.00    -0.028 C 
ATOM      8  C   UNL     1       2.970   0.237  -0.973  0.00  0.00    +0.068 C 
ATOM      9  C   UNL     1       2.870   0.472   0.541  0.00  0.00    +0.236 C 
ATOM     10  O   UNL     1       1.520   0.492   1.021  0.00  0.00    -0.464 OA
ATOM     11  C   UNL     1       0.745   1.561   0.630  0.00  0.00    +0.290 C 
ATOM     12  C   UNL     1      -0.610   1.443   0.598  0.00  0.00    +0.106 C 
ATOM     13  C   UNL     1      -1.352   2.659   0.095  0.00  0.00    +0.197 C 
ATOM     14  O   UNL     1      -0.804   3.736  -0.136  0.00  0.00    -0.287 OA
ATOM     15  C   UNL     1      -2.797   2.535  -0.154  0.00  0.00    +0.098 C 
ATOM     16  C   UNL     1      -3.437   1.405   0.152  0.00  0.00    +0.139 C 
ATOM     17  C   UNL     1      -2.763   0.270   0.767  0.00  0.00    +0.087 C 
ATOM     18 CL   UNL     1      -3.780  -1.081   1.206  0.00  0.00    -0.079 Cl
ATOM     19  C   UNL     1      -1.423   0.253   0.986  0.00  0.00    -0.001 C 
ATOM     20  C   UNL     1      -0.759  -0.918   1.700  0.00  0.00    +0.112 C 
ENDROOT
BRANCH  11  21
ATOM     21  O   UNL     1       1.426   2.716   0.279  0.00  0.00    -0.480 OA
ATOM     22  H   UNL     1       0.780   3.425   0.071  0.00  0.00    +0.295 HD
ENDBRANCH  11  21
BRANCH  16  23
ATOM     23  O   UNL     1      -4.790   1.259  -0.085  0.00  0.00    -0.505 OA
ATOM     24  H   UNL     1      -5.147   2.076  -0.473  0.00  0.00    +0.292 HD
ENDBRANCH  16  23
TORSDOF 2
