REMARK  Name = 
REMARK  3 active torsions:
REMARK  status: ('A' for Active; 'I' for Inactive)
REMARK    1  A    between atoms: O_1  and  C_2
REMARK    2  A    between atoms: C_11  and  O_12
REMARK    3  A    between atoms: C_17  and  O_18
REMARK                            x       y       z     vdW  Elec       q    Type
REMARK                         _______ _______ _______ _____ _____    ______ ____
ROOT
ATOM      1  C   UNL     1      -0.837  -2.877  -2.037  0.00  0.00    +0.095 C 
ATOM      2  C   UNL     1       0.093  -3.322  -1.172  0.00  0.00    +0.014 C 
ATOM      3  C   UNL     1       0.497  -2.726   0.149  0.00  0.00    +0.034 C 
ATOM      4  C   UNL     1      -0.525  -2.924   1.270  0.00  0.00    +0.031 C 
ATOM      5  C   UNL     1      -0.063  -2.474   2.629  0.00  0.00    -0.031 C 
ATOM      6  C   UNL     1       0.344  -1.256   3.026  0.00  0.00    -0.028 C 
ATOM      7  C   UNL     1       0.478   0.022   2.235  0.00  0.00    +0.068 C 
ATOM      8  C   UNL     1      -0.811   0.569   1.606  0.00  0.00    +0.236 C 
ATOM      9  O   UNL     1      -1.000   0.135   0.254  0.00  0.00    -0.464 OA
ATOM     10  C   UNL     1      -0.271   0.796  -0.717  0.00  0.00    +0.290 C 
ATOM     11  C   UNL     1      -0.479   0.529  -2.035  0.00  0.00    +0.106 C 
ATOM     12  C   UNL     1       0.260   1.428  -2.992  0.00  0.00    +0.197 C 
ATOM     13  O   UNL     1       1.279   2.044  -2.686  0.00  0.00    -0.287 OA
ATOM     14  C   UNL     1      -0.333   1.620  -4.327  0.00  0.00    +0.098 C 
ATOM     15  C   UNL     1      -1.349   0.846  -4.719  0.00  0.00    +0.139 C 
ATOM     16  C   UNL     1      -1.838  -0.263  -3.906  0.00  0.00    +0.087 C 
ATOM     17 CL   UNL     1      -2.972  -1.339  -4.683  0.00  0.00    -0.079 Cl
ATOM     18  C   UNL     1      -1.401  -0.469  -2.636  0.00  0.00    -0.001 C 
ATOM     19  C   UNL     1      -1.796  -1.712  -1.845  0.00  0.00    +0.110 C 
ENDROOT
BRANCH   1  20
ATOM     20  O   UNL     1      -1.035  -3.556  -3.229  0.00  0.00    -0.511 OA
ATOM     21  H   UNL     1      -0.408  -4.296  -3.289  0.00  0.00    +0.292 HD
ENDBRANCH   1  20
BRANCH  10  22
ATOM     22  O   UNL     1       0.633   1.753  -0.273  0.00  0.00    -0.480 OA
ATOM     23  H   UNL     1       1.173   2.062  -1.033  0.00  0.00    +0.295 HD
ENDBRANCH  10  22
BRANCH  15  24
ATOM     24  O   UNL     1      -1.956   1.023  -5.948  0.00  0.00    -0.505 OA
ATOM     25  H   UNL     1      -1.534   1.761  -6.418  0.00  0.00    +0.292 HD
ENDBRANCH  15  24
TORSDOF 3
