REMARK  Name = 
REMARK  3 active torsions:
REMARK  status: ('A' for Active; 'I' for Inactive)
REMARK    1  A    between atoms: O_1  and  C_2
REMARK    2  A    between atoms: C_14  and  O_15
REMARK    3  A    between atoms: C_17  and  O_18
REMARK                            x       y       z     vdW  Elec       q    Type
REMARK                         _______ _______ _______ _____ _____    ______ ____
ROOT
ATOM      1  C   UNL     1       1.359  -2.061  -1.048  0.00  0.00    +0.095 C 
ATOM      2  C   UNL     1       1.903  -2.442   0.121  0.00  0.00    +0.014 C 
ATOM      3  C   UNL     1       2.918  -1.700   0.952  0.00  0.00    +0.034 C 
ATOM      4  C   UNL     1       2.480  -1.517   2.414  0.00  0.00    +0.031 C 
ATOM      5  C   UNL     1       1.138  -0.856   2.541  0.00  0.00    -0.031 C 
ATOM      6  C   UNL     1       0.964   0.456   2.757  0.00  0.00    -0.028 C 
ATOM      7  C   UNL     1      -0.389   1.110   2.802  0.00  0.00    +0.068 C 
ATOM      8  C   UNL     1      -0.598   2.075   1.637  0.00  0.00    +0.236 C 
ATOM      9  O   UNL     1      -0.784   1.353   0.407  0.00  0.00    -0.461 OA
ATOM     10  C   UNL     1       0.218   1.457  -0.501  0.00  0.00    +0.343 C 
ATOM     11  O   UNL     1       1.322   1.947  -0.330  0.00  0.00    -0.245 OA
ATOM     12  C   UNL     1      -0.235   0.905  -1.800  0.00  0.00    +0.105 A 
ATOM     13  C   UNL     1      -1.357   1.502  -2.413  0.00  0.00    +0.135 A 
ATOM     14  C   UNL     1      -1.797   1.079  -3.662  0.00  0.00    +0.093 A 
ATOM     15  C   UNL     1      -1.096   0.079  -4.317  0.00  0.00    +0.139 A 
ATOM     16  C   UNL     1       0.040  -0.512  -3.743  0.00  0.00    +0.087 A 
ATOM     17 CL   UNL     1       0.866  -1.713  -4.689  0.00  0.00    -0.079 Cl
ATOM     18  C   UNL     1       0.491  -0.116  -2.464  0.00  0.00    -0.001 A 
ATOM     19  C   UNL     1       1.690  -0.794  -1.820  0.00  0.00    +0.110 C 
ENDROOT
BRANCH   1  20
ATOM     20  O   UNL     1       0.432  -2.885  -1.668  0.00  0.00    -0.511 OA
ATOM     21  H   UNL     1       0.285  -3.673  -1.118  0.00  0.00    +0.292 HD
ENDBRANCH   1  20
BRANCH  13  22
ATOM     22  O   UNL     1      -2.011   2.539  -1.801  0.00  0.00    -0.506 OA
ATOM     23  H   UNL     1      -2.767   2.813  -2.347  0.00  0.00    +0.292 HD
ENDBRANCH  13  22
BRANCH  15  24
ATOM     24  O   UNL     1      -1.560  -0.290  -5.553  0.00  0.00    -0.505 OA
ATOM     25  H   UNL     1      -0.977  -1.004  -5.874  0.00  0.00    +0.292 HD
ENDBRANCH  15  24
TORSDOF 3
