REMARK  Name = 
REMARK  3 active torsions:
REMARK  status: ('A' for Active; 'I' for Inactive)
REMARK    1  A    between atoms: O_1  and  C_2
REMARK    2  A    between atoms: C_14  and  O_15
REMARK    3  A    between atoms: C_17  and  O_18
REMARK                            x       y       z     vdW  Elec       q    Type
REMARK                         _______ _______ _______ _____ _____    ______ ____
ROOT
ATOM      1  C   UNL     1      -1.337  -0.352   1.202  0.00  0.00    +0.095 C 
ATOM      2  C   UNL     1      -2.209  -0.974   0.131  0.00  0.00    +0.074 C 
ATOM      3  C   UNL     1      -3.246  -0.049  -0.539  0.00  0.00    +0.012 C 
ATOM      4  C   UNL     1      -2.694   1.030  -1.485  0.00  0.00    +0.027 C 
ATOM      5  C   UNL     1      -1.788   2.012  -0.806  0.00  0.00    -0.031 C 
ATOM      6  C   UNL     1      -0.611   2.410  -1.309  0.00  0.00    -0.028 C 
ATOM      7  C   UNL     1       0.393   3.202  -0.515  0.00  0.00    +0.068 C 
ATOM      8  C   UNL     1       1.778   2.542  -0.495  0.00  0.00    +0.236 C 
ATOM      9  O   UNL     1       1.703   1.175  -0.044  0.00  0.00    -0.461 OA
ATOM     10  C   UNL     1       1.677   0.241  -1.024  0.00  0.00    +0.343 C 
ATOM     11  O   UNL     1       1.818   0.446  -2.224  0.00  0.00    -0.245 OA
ATOM     12  C   UNL     1       1.578  -1.143  -0.503  0.00  0.00    +0.109 A 
ATOM     13  C   UNL     1       2.282  -2.135  -1.220  0.00  0.00    +0.135 A 
ATOM     14  C   UNL     1       2.290  -3.462  -0.802  0.00  0.00    +0.093 A 
ATOM     15  C   UNL     1       1.571  -3.819   0.326  0.00  0.00    +0.139 A 
ATOM     16  C   UNL     1       0.832  -2.864   1.036  0.00  0.00    +0.091 A 
ATOM     17 CL   UNL     1      -0.050  -3.412   2.433  0.00  0.00    -0.079 Cl
ATOM     18  C   UNL     1       0.813  -1.510   0.626  0.00  0.00    +0.017 A 
ATOM     19  C   UNL     1      -0.021  -0.553   1.373  0.00  0.00    +0.051 C 
ENDROOT
BRANCH   1  20
ATOM     20  O   UNL     1      -1.975   0.462   2.128  0.00  0.00    -0.511 OA
ATOM     21  H   UNL     1      -2.930   0.288   2.092  0.00  0.00    +0.292 HD
ENDBRANCH   1  20
BRANCH  13  22
ATOM     22  O   UNL     1       2.998  -1.878  -2.362  0.00  0.00    -0.506 OA
ATOM     23  H   UNL     1       2.752  -0.989  -2.701  0.00  0.00    +0.292 HD
ENDBRANCH  13  22
BRANCH  15  24
ATOM     24  O   UNL     1       1.611  -5.135   0.699  0.00  0.00    -0.505 OA
ATOM     25  H   UNL     1       1.070  -5.228   1.506  0.00  0.00    +0.292 HD
ENDBRANCH  15  24
TORSDOF 3
