REMARK  Name = 
REMARK  3 active torsions:
REMARK  status: ('A' for Active; 'I' for Inactive)
REMARK    1  A    between atoms: O_1  and  C_2
REMARK    2  A    between atoms: C_11  and  O_12
REMARK    3  A    between atoms: C_17  and  O_18
REMARK                            x       y       z     vdW  Elec       q    Type
REMARK                         _______ _______ _______ _____ _____    ______ ____
ROOT
ATOM      1  C   UNL     1      -1.439   0.061   1.304  0.00  0.00    +0.095 C 
ATOM      2  C   UNL     1      -0.271   0.893   1.798  0.00  0.00    +0.074 C 
ATOM      3  C   UNL     1       0.511   0.360   3.016  0.00  0.00    +0.012 C 
ATOM      4  C   UNL     1       1.449  -0.823   2.755  0.00  0.00    +0.027 C 
ATOM      5  C   UNL     1       0.742  -2.054   2.280  0.00  0.00    -0.031 C 
ATOM      6  C   UNL     1       1.141  -2.767   1.217  0.00  0.00    -0.028 C 
ATOM      7  C   UNL     1       0.342  -3.900   0.629  0.00  0.00    +0.068 C 
ATOM      8  C   UNL     1       0.107  -3.670  -0.866  0.00  0.00    +0.236 C 
ATOM      9  O   UNL     1      -0.702  -2.499  -1.041  0.00  0.00    -0.464 OA
ATOM     10  C   UNL     1      -0.435  -1.816  -2.213  0.00  0.00    +0.291 C 
ATOM     11  C   UNL     1      -0.634  -0.471  -2.289  0.00  0.00    +0.110 C 
ATOM     12  C   UNL     1      -0.243   0.175  -3.595  0.00  0.00    +0.197 C 
ATOM     13  O   UNL     1       0.130  -0.466  -4.576  0.00  0.00    -0.287 OA
ATOM     14  C   UNL     1      -0.296   1.640  -3.681  0.00  0.00    +0.098 C 
ATOM     15  C   UNL     1      -0.778   2.351  -2.663  0.00  0.00    +0.139 C 
ATOM     16  C   UNL     1      -1.285   1.737  -1.445  0.00  0.00    +0.091 C 
ATOM     17 CL   UNL     1      -2.103   2.844  -0.360  0.00  0.00    -0.079 Cl
ATOM     18  C   UNL     1      -1.192   0.400  -1.206  0.00  0.00    +0.018 C 
ATOM     19  C   UNL     1      -1.784  -0.153   0.021  0.00  0.00    +0.051 C 
ENDROOT
BRANCH   1  20
ATOM     20  O   UNL     1      -2.264  -0.490   2.276  0.00  0.00    -0.511 OA
ATOM     21  H   UNL     1      -2.100  -0.040   3.120  0.00  0.00    +0.292 HD
ENDBRANCH   1  20
BRANCH  10  22
ATOM     22  O   UNL     1       0.029  -2.583  -3.274  0.00  0.00    -0.480 OA
ATOM     23  H   UNL     1       0.156  -2.006  -4.059  0.00  0.00    +0.295 HD
ENDBRANCH  10  22
BRANCH  15  24
ATOM     24  O   UNL     1      -0.818   3.730  -2.770  0.00  0.00    -0.505 OA
ATOM     25  H   UNL     1      -1.247   4.081  -1.966  0.00  0.00    +0.292 HD
ENDBRANCH  15  24
TORSDOF 3
