REMARK  Name = 
REMARK  14 active torsions:
REMARK  status: ('A' for Active; 'I' for Inactive)
REMARK    1  A    between atoms: C_1  and  O_2
REMARK    2  A    between atoms: O_2  and  C_3
REMARK    3  A    between atoms: C_6  and  C_7
REMARK    4  A    between atoms: C_9  and  O_10
REMARK    5  A    between atoms: O_10  and  C_11
REMARK    6  A    between atoms: C_12  and  O_13
REMARK    7  A    between atoms: C_14  and  C_15
REMARK    8  A    between atoms: C_17  and  C_18
REMARK    9  A    between atoms: C_19  and  O_20
REMARK   10  A    between atoms: O_20  and  C_21
REMARK   11  A    between atoms: C_21  and  O_23
REMARK   12  A    between atoms: C_24  and  O_25
REMARK   13  A    between atoms: O_25  and  C_26
REMARK   14  A    between atoms: C_30  and  C_31
REMARK                            x       y       z     vdW  Elec       q    Type
REMARK                         _______ _______ _______ _____ _____    ______ ____
ROOT
ATOM      1  C   UNL     1       2.438  -3.214   1.204  0.00  0.00    +0.173 C 
ATOM      2  C   UNL     1       2.391  -1.880   1.043  0.00  0.00    +0.047 C 
ATOM      3  C   UNL     1       3.499  -1.074   0.389  0.00  0.00    +0.046 C 
ATOM      4  C   UNL     1       3.919  -1.359  -1.087  0.00  0.00    -0.007 C 
ATOM      5  C   UNL     1       5.252  -2.125  -1.143  0.00  0.00    +0.008 C 
ATOM      6  C   UNL     1       2.873  -2.047  -2.004  0.00  0.00    +0.037 C 
ATOM      7  C   UNL     1       1.989  -1.097  -2.845  0.00  0.00    +0.147 C 
ATOM      8  C   UNL     1       0.968  -0.301  -1.987  0.00  0.00    +0.150 C 
ATOM      9  C   UNL     1       0.142   0.716  -2.828  0.00  0.00    +0.040 C 
ATOM     10  C   UNL     1      -0.885   0.087  -3.771  0.00  0.00    +0.014 C 
ATOM     11  C   UNL     1      -0.402   1.883  -2.022  0.00  0.00    -0.019 C 
ATOM     12  C   UNL     1      -1.517   2.057  -1.278  0.00  0.00    -0.033 C 
ATOM     13  C   UNL     1      -1.812   3.453  -0.776  0.00  0.00    +0.042 C 
ATOM     14  C   UNL     1      -2.544   0.978  -0.916  0.00  0.00    +0.236 C 
ATOM     15  C   UNL     1      -3.147   1.125   0.546  0.00  0.00    +0.186 C 
ATOM     16  C   UNL     1      -3.747  -0.160   1.083  0.00  0.00    +0.008 C 
ATOM     17  C   UNL     1      -3.860  -0.584   2.353  0.00  0.00    -0.001 C 
ATOM     18  C   UNL     1      -3.486   0.127   3.553  0.00  0.00    +0.008 C 
ATOM     19  C   UNL     1      -2.269   0.456   4.027  0.00  0.00    +0.012 C 
ATOM     20  C   UNL     1      -2.127   1.276   5.282  0.00  0.00    +0.049 C 
ATOM     21  C   UNL     1      -0.948   0.076   3.419  0.00  0.00    +0.244 C 
ATOM     22  O   UNL     1       0.018   0.811   3.580  0.00  0.00    -0.270 OA
ATOM     23  N   UNL     1      -0.922  -1.202   2.910  0.00  0.00    -0.279 N 
ATOM     24  C   UNL     1       0.128  -1.838   2.275  0.00  0.00    +0.085 C 
ATOM     25  C   UNL     1       0.145  -3.174   2.280  0.00  0.00    +0.081 C 
ATOM     26  C   UNL     1       1.254  -3.955   1.724  0.00  0.00    +0.222 C 
ATOM     27  O   UNL     1       1.177  -5.179   1.730  0.00  0.00    -0.284 OA
ATOM     28  C   UNL     1       1.208  -1.094   1.538  0.00  0.00    +0.207 C 
ATOM     29  O   UNL     1       1.121   0.106   1.299  0.00  0.00    -0.286 OA
ATOM     30  H   UNL     1      -1.733  -1.768   3.122  0.00  0.00    +0.155 HD
ENDROOT
BRANCH   7  31
ATOM     31  O   UNL     1       2.795  -0.182  -3.600  0.00  0.00    -0.377 OA
ATOM     32  C   UNL     1       3.423  -0.764  -4.734  0.00  0.00    +0.194 C 
ENDBRANCH   7  31
BRANCH   8  33
ATOM     33  O   UNL     1       0.129  -1.233  -1.286  0.00  0.00    -0.389 OA
ATOM     34  H   UNL     1      -0.493  -1.623  -1.923  0.00  0.00    +0.210 HD
ENDBRANCH   8  33
BRANCH  15  35
ATOM     35  O   UNL     1      -4.204   2.107   0.502  0.00  0.00    -0.372 OA
ATOM     36  C   UNL     1      -4.354   2.865   1.691  0.00  0.00    +0.195 C 
ENDBRANCH  15  35
BRANCH   1  38
ATOM     37  C   UNL     1       4.039  -4.859   1.754  0.00  0.00    +0.277 C 
ATOM     38  O   UNL     1       3.560  -3.918   0.796  0.00  0.00    -0.491 OA
ENDBRANCH   1  38
BRANCH  14  39
ATOM     39  O   UNL     1      -3.594   1.107  -1.910  0.00  0.00    -0.439 OA
BRANCH  39  40
ATOM     40  C   UNL     1      -4.204   0.014  -2.380  0.00  0.00    +0.381 C 
ATOM     41  N   UNL     1      -3.923  -1.202  -2.095  0.00  0.00    -0.233 NA
ATOM     42  H   UNL     1      -4.537  -1.839  -2.600  0.00  0.00    +0.193 HD
BRANCH  40  43
ATOM     43  O   UNL     1      -5.176   0.337  -3.238  0.00  0.00    -0.466 OA
ATOM     44  H   UNL     1      -5.627  -0.443  -3.580  0.00  0.00    +0.297 HD
ENDBRANCH  40  43
ENDBRANCH  39  40
ENDBRANCH  14  39
TORSDOF 7
