REMARK  Name = 
REMARK  14 active torsions:
REMARK  status: ('A' for Active; 'I' for Inactive)
REMARK    1  A    between atoms: C_1  and  O_2
REMARK    2  A    between atoms: O_2  and  C_3
REMARK    3  A    between atoms: C_6  and  C_7
REMARK    4  A    between atoms: C_9  and  O_10
REMARK    5  A    between atoms: O_10  and  C_11
REMARK    6  A    between atoms: C_12  and  O_13
REMARK    7  A    between atoms: C_14  and  C_15
REMARK    8  A    between atoms: C_17  and  C_18
REMARK    9  A    between atoms: C_19  and  O_20
REMARK   10  A    between atoms: O_20  and  C_21
REMARK   11  A    between atoms: C_24  and  O_25
REMARK   12  A    between atoms: O_25  and  C_26
REMARK   13  A    between atoms: C_30  and  C_31
REMARK   14  A    between atoms: C_32  and  O_33
REMARK                            x       y       z     vdW  Elec       q    Type
REMARK                         _______ _______ _______ _____ _____    ______ ____
ROOT
ATOM      1  C   UNL     1       1.900   3.605   2.123  0.00  0.00    +0.173 C 
ATOM      2  C   UNL     1       2.106   2.527   1.349  0.00  0.00    +0.047 C 
ATOM      3  C   UNL     1       2.678   2.569  -0.049  0.00  0.00    +0.046 C 
ATOM      4  C   UNL     1       1.645   2.192  -1.149  0.00  0.00    -0.007 C 
ATOM      5  C   UNL     1       0.926   3.459  -1.619  0.00  0.00    +0.008 C 
ATOM      6  C   UNL     1       2.389   1.427  -2.266  0.00  0.00    +0.037 C 
ATOM      7  C   UNL     1       1.651   1.034  -3.558  0.00  0.00    +0.147 C 
ATOM      8  C   UNL     1       0.395   0.123  -3.417  0.00  0.00    +0.150 C 
ATOM      9  C   UNL     1       0.578  -1.331  -2.870  0.00  0.00    +0.040 C 
ATOM     10  C   UNL     1       1.922  -1.975  -3.216  0.00  0.00    +0.014 C 
ATOM     11  C   UNL     1       0.257  -1.515  -1.394  0.00  0.00    -0.019 C 
ATOM     12  C   UNL     1      -0.846  -2.113  -0.884  0.00  0.00    -0.033 C 
ATOM     13  C   UNL     1      -1.964  -2.658  -1.744  0.00  0.00    +0.042 C 
ATOM     14  C   UNL     1      -1.033  -2.296   0.638  0.00  0.00    +0.236 C 
ATOM     15  C   UNL     1      -1.800  -1.093   1.283  0.00  0.00    +0.186 C 
ATOM     16  C   UNL     1      -2.248  -1.188   2.728  0.00  0.00    +0.008 C 
ATOM     17  C   UNL     1      -1.847  -1.900   3.792  0.00  0.00    -0.001 C 
ATOM     18  C   UNL     1      -0.772  -2.847   3.945  0.00  0.00    +0.008 C 
ATOM     19  C   UNL     1       0.560  -2.664   3.852  0.00  0.00    +0.011 C 
ATOM     20  C   UNL     1       1.501  -3.814   4.095  0.00  0.00    +0.049 C 
ATOM     21  C   UNL     1       1.172  -1.355   3.475  0.00  0.00    +0.216 C 
ATOM     22  N   UNL     1       0.590  -0.207   3.553  0.00  0.00    -0.209 NA
ATOM     23  C   UNL     1       1.146   0.987   3.167  0.00  0.00    +0.118 C 
ATOM     24  C   UNL     1       0.917   2.079   3.903  0.00  0.00    +0.086 C 
ATOM     25  C   UNL     1       1.333   3.431   3.500  0.00  0.00    +0.223 C 
ATOM     26  O   UNL     1       1.174   4.358   4.286  0.00  0.00    -0.284 OA
ATOM     27  C   UNL     1       1.851   1.157   1.863  0.00  0.00    +0.211 C 
ATOM     28  O   UNL     1       2.241   0.174   1.231  0.00  0.00    -0.285 OA
ENDROOT
BRANCH   7  29
ATOM     29  O   UNL     1       1.382   2.266  -4.258  0.00  0.00    -0.377 OA
ATOM     30  C   UNL     1       0.984   2.114  -5.611  0.00  0.00    +0.194 C 
ENDBRANCH   7  29
BRANCH   8  31
ATOM     31  O   UNL     1      -0.667   0.801  -2.735  0.00  0.00    -0.389 OA
ATOM     32  H   UNL     1      -1.384   0.159  -2.600  0.00  0.00    +0.210 HD
ENDBRANCH   8  31
BRANCH  21  33
ATOM     33  O   UNL     1       2.423  -1.574   3.027  0.00  0.00    -0.492 OA
ATOM     34  H   UNL     1       2.679  -0.917   2.356  0.00  0.00    +0.294 HD
ENDBRANCH  21  33
BRANCH   1  36
ATOM     35  C   UNL     1       2.759   5.793   2.515  0.00  0.00    +0.277 C 
ATOM     36  O   UNL     1       2.174   4.864   1.606  0.00  0.00    -0.491 OA
ENDBRANCH   1  36
BRANCH  15  37
ATOM     37  O   UNL     1      -3.022  -0.850   0.540  0.00  0.00    -0.372 OA
ATOM     38  C   UNL     1      -3.179   0.517   0.176  0.00  0.00    +0.195 C 
ENDBRANCH  15  37
BRANCH  14  39
ATOM     39  O   UNL     1      -1.764  -3.521   0.870  0.00  0.00    -0.440 OA
BRANCH  39  40
ATOM     40  C   UNL     1      -1.030  -4.640   1.009  0.00  0.00    +0.398 C 
ATOM     41  N   UNL     1      -1.851  -5.692   1.229  0.00  0.00    -0.295 N 
ATOM     42  O   UNL     1       0.184  -4.744   0.957  0.00  0.00    -0.227 OA
ATOM     43  H   UNL     1      -1.454  -6.610   1.347  0.00  0.00    +0.148 HD
ATOM     44  H   UNL     1      -2.848  -5.544   1.260  0.00  0.00    +0.148 HD
ENDBRANCH  39  40
ENDBRANCH  14  39
TORSDOF 7
