REMARK  Name = 
REMARK  13 active torsions:
REMARK  status: ('A' for Active; 'I' for Inactive)
REMARK    1  A    between atoms: C_1  and  O_2
REMARK    2  A    between atoms: O_2  and  C_3
REMARK    3  A    between atoms: C_6  and  C_7
REMARK    4  A    between atoms: C_9  and  O_10
REMARK    5  A    between atoms: O_10  and  C_11
REMARK    6  A    between atoms: C_12  and  O_13
REMARK    7  A    between atoms: C_14  and  C_15
REMARK    8  A    between atoms: C_17  and  C_18
REMARK    9  A    between atoms: C_19  and  O_20
REMARK   10  A    between atoms: O_20  and  C_21
REMARK   11  A    between atoms: C_24  and  O_25
REMARK   12  A    between atoms: O_25  and  C_26
REMARK   13  A    between atoms: C_30  and  C_31
REMARK                            x       y       z     vdW  Elec       q    Type
REMARK                         _______ _______ _______ _____ _____    ______ ____
ROOT
ATOM      1  C   UNL     1      -1.077   1.608   3.679  0.00  0.00    +0.173 C 
ATOM      2  C   UNL     1      -1.138   1.862   2.360  0.00  0.00    +0.047 C 
ATOM      3  C   UNL     1      -2.460   1.996   1.628  0.00  0.00    +0.046 C 
ATOM      4  C   UNL     1      -3.108   0.658   1.175  0.00  0.00    -0.007 C 
ATOM      5  C   UNL     1      -4.565   0.931   0.781  0.00  0.00    +0.008 C 
ATOM      6  C   UNL     1      -2.311   0.011   0.016  0.00  0.00    +0.037 C 
ATOM      7  C   UNL     1      -2.914  -1.283  -0.575  0.00  0.00    +0.147 C 
ATOM      8  C   UNL     1      -2.120  -1.742  -1.838  0.00  0.00    +0.150 C 
ATOM      9  C   UNL     1      -0.713  -2.342  -1.562  0.00  0.00    +0.040 C 
ATOM     10  C   UNL     1      -0.710  -3.846  -1.268  0.00  0.00    +0.014 C 
ATOM     11  C   UNL     1       0.207  -2.080  -2.754  0.00  0.00    -0.019 C 
ATOM     12  C   UNL     1       1.103  -1.072  -2.873  0.00  0.00    -0.033 C 
ATOM     13  C   UNL     1       1.918  -0.933  -4.132  0.00  0.00    +0.042 C 
ATOM     14  C   UNL     1       1.272   0.016  -1.806  0.00  0.00    +0.236 C 
ATOM     15  C   UNL     1       2.411  -0.207  -0.754  0.00  0.00    +0.186 C 
ATOM     16  C   UNL     1       3.803  -0.134  -1.310  0.00  0.00    +0.008 C 
ATOM     17  C   UNL     1       4.801   0.754  -1.198  0.00  0.00    -0.001 C 
ATOM     18  C   UNL     1       5.046   2.016  -0.529  0.00  0.00    +0.008 C 
ATOM     19  C   UNL     1       4.328   2.964   0.100  0.00  0.00    +0.012 C 
ATOM     20  C   UNL     1       4.967   4.249   0.561  0.00  0.00    +0.049 C 
ATOM     21  C   UNL     1       2.870   2.944   0.399  0.00  0.00    +0.244 C 
ATOM     22  O   UNL     1       2.097   3.547  -0.327  0.00  0.00    -0.270 OA
ATOM     23  N   UNL     1       2.631   2.352   1.626  0.00  0.00    -0.279 N 
ATOM     24  C   UNL     1       1.423   2.098   2.261  0.00  0.00    +0.085 C 
ATOM     25  C   UNL     1       1.452   1.777   3.559  0.00  0.00    +0.081 C 
ATOM     26  C   UNL     1       0.249   1.468   4.348  0.00  0.00    +0.222 C 
ATOM     27  O   UNL     1       0.389   1.128   5.517  0.00  0.00    -0.284 OA
ATOM     28  C   UNL     1       0.101   2.060   1.548  0.00  0.00    +0.207 C 
ATOM     29  O   UNL     1       0.016   2.112   0.328  0.00  0.00    -0.286 OA
ATOM     30  H   UNL     1       3.467   2.112   2.146  0.00  0.00    +0.155 HD
ENDROOT
BRANCH   7  31
ATOM     31  O   UNL     1      -2.928  -2.259   0.476  0.00  0.00    -0.377 OA
ATOM     32  C   UNL     1      -3.947  -3.238   0.310  0.00  0.00    +0.194 C 
ENDBRANCH   7  31
BRANCH   8  33
ATOM     33  O   UNL     1      -2.922  -2.661  -2.600  0.00  0.00    -0.389 OA
ATOM     34  H   UNL     1      -2.473  -2.761  -3.458  0.00  0.00    +0.210 HD
ENDBRANCH   8  33
BRANCH   1  36
ATOM     35  C   UNL     1      -2.287   1.950   5.702  0.00  0.00    +0.277 C 
ATOM     36  O   UNL     1      -2.260   1.415   4.382  0.00  0.00    -0.491 OA
ENDBRANCH   1  36
BRANCH  15  37
ATOM     37  O   UNL     1       2.256  -1.500  -0.137  0.00  0.00    -0.372 OA
ATOM     38  C   UNL     1       2.729  -1.551   1.200  0.00  0.00    +0.195 C 
ENDBRANCH  15  37
BRANCH  14  39
ATOM     39  O   UNL     1       1.451   1.322  -2.385  0.00  0.00    -0.440 OA
BRANCH  39  40
ATOM     40  C   UNL     1       0.327   1.951  -2.787  0.00  0.00    +0.398 C 
ATOM     41  N   UNL     1       0.559   3.279  -2.863  0.00  0.00    -0.295 N 
ATOM     42  O   UNL     1      -0.756   1.442  -3.030  0.00  0.00    -0.227 OA
ATOM     43  H   UNL     1      -0.208   3.897  -3.069  0.00  0.00    +0.148 HD
ATOM     44  H   UNL     1       1.380   3.627  -2.382  0.00  0.00    +0.148 HD
ENDBRANCH  39  40
ENDBRANCH  14  39
TORSDOF 6
