REMARK  Name = 
REMARK  14 active torsions:
REMARK  status: ('A' for Active; 'I' for Inactive)
REMARK    1  A    between atoms: C_1  and  O_2
REMARK    2  A    between atoms: O_2  and  C_3
REMARK    3  A    between atoms: C_6  and  C_7
REMARK    4  A    between atoms: C_9  and  O_10
REMARK    5  A    between atoms: O_10  and  C_11
REMARK    6  A    between atoms: C_12  and  O_13
REMARK    7  A    between atoms: C_14  and  C_15
REMARK    8  A    between atoms: C_17  and  C_18
REMARK    9  A    between atoms: C_19  and  O_20
REMARK   10  A    between atoms: O_20  and  C_21
REMARK   11  A    between atoms: C_21  and  O_23
REMARK   12  A    between atoms: C_24  and  O_25
REMARK   13  A    between atoms: O_25  and  C_26
REMARK   14  A    between atoms: C_30  and  C_31
REMARK                            x       y       z     vdW  Elec       q    Type
REMARK                         _______ _______ _______ _____ _____    ______ ____
ROOT
ATOM      1  C   UNL     1       3.058   2.561   2.629  0.00  0.00    +0.173 C 
ATOM      2  C   UNL     1       2.351   2.391   1.497  0.00  0.00    +0.047 C 
ATOM      3  C   UNL     1       2.869   2.697   0.108  0.00  0.00    +0.046 C 
ATOM      4  C   UNL     1       3.265   1.464  -0.758  0.00  0.00    -0.007 C 
ATOM      5  C   UNL     1       4.278   0.572  -0.033  0.00  0.00    +0.008 C 
ATOM      6  C   UNL     1       2.029   0.666  -1.242  0.00  0.00    +0.037 C 
ATOM      7  C   UNL     1       2.303  -0.394  -2.320  0.00  0.00    +0.147 C 
ATOM      8  C   UNL     1       1.049  -1.248  -2.696  0.00  0.00    +0.150 C 
ATOM      9  C   UNL     1      -0.078  -0.526  -3.499  0.00  0.00    +0.040 C 
ATOM     10  C   UNL     1      -0.871  -1.482  -4.406  0.00  0.00    +0.014 C 
ATOM     11  C   UNL     1      -0.952   0.388  -2.654  0.00  0.00    -0.019 C 
ATOM     12  C   UNL     1      -2.136   0.221  -2.017  0.00  0.00    -0.033 C 
ATOM     13  C   UNL     1      -2.775   1.448  -1.403  0.00  0.00    +0.042 C 
ATOM     14  C   UNL     1      -2.940  -1.084  -1.919  0.00  0.00    +0.236 C 
ATOM     15  C   UNL     1      -3.440  -1.462  -0.470  0.00  0.00    +0.186 C 
ATOM     16  C   UNL     1      -2.997  -2.856  -0.075  0.00  0.00    +0.008 C 
ATOM     17  C   UNL     1      -2.140  -3.214   0.895  0.00  0.00    -0.001 C 
ATOM     18  C   UNL     1      -1.436  -2.312   1.770  0.00  0.00    +0.008 C 
ATOM     19  C   UNL     1      -1.976  -1.560   2.749  0.00  0.00    +0.012 C 
ATOM     20  C   UNL     1      -3.390  -1.547   3.229  0.00  0.00    +0.049 C 
ATOM     21  C   UNL     1      -1.036  -0.646   3.457  0.00  0.00    +0.244 C 
ATOM     22  O   UNL     1      -0.804  -0.765   4.651  0.00  0.00    -0.270 OA
ATOM     23  N   UNL     1      -0.499   0.282   2.597  0.00  0.00    -0.279 N 
ATOM     24  C   UNL     1       0.570   1.127   2.795  0.00  0.00    +0.085 C 
ATOM     25  C   UNL     1       1.283   1.265   3.913  0.00  0.00    +0.081 C 
ATOM     26  C   UNL     1       2.475   2.135   3.949  0.00  0.00    +0.222 C 
ATOM     27  O   UNL     1       2.973   2.427   5.030  0.00  0.00    -0.284 OA
ATOM     28  C   UNL     1       0.955   1.907   1.586  0.00  0.00    +0.207 C 
ATOM     29  O   UNL     1       0.143   2.058   0.676  0.00  0.00    -0.286 OA
ATOM     30  H   UNL     1      -0.896   0.331   1.659  0.00  0.00    +0.155 HD
ENDROOT
BRANCH   7  31
ATOM     31  O   UNL     1       2.794   0.255  -3.506  0.00  0.00    -0.377 OA
ATOM     32  C   UNL     1       4.096  -0.174  -3.885  0.00  0.00    +0.194 C 
ENDBRANCH   7  31
BRANCH   8  33
ATOM     33  O   UNL     1       1.544  -2.361  -3.469  0.00  0.00    -0.389 OA
ATOM     34  H   UNL     1       1.910  -1.975  -4.286  0.00  0.00    +0.210 HD
ENDBRANCH   8  33
BRANCH  15  35
ATOM     35  O   UNL     1      -4.869  -1.501  -0.318  0.00  0.00    -0.372 OA
ATOM     36  C   UNL     1      -5.474  -0.233  -0.131  0.00  0.00    +0.195 C 
ENDBRANCH  15  35
BRANCH   1  38
ATOM     37  C   UNL     1       4.723   3.988   3.546  0.00  0.00    +0.277 C 
ATOM     38  O   UNL     1       4.359   3.043   2.544  0.00  0.00    -0.491 OA
ENDBRANCH   1  38
BRANCH  14  39
ATOM     39  O   UNL     1      -4.041  -0.938  -2.840  0.00  0.00    -0.439 OA
BRANCH  39  40
ATOM     40  C   UNL     1      -4.558  -2.056  -3.370  0.00  0.00    +0.381 C 
ATOM     41  N   UNL     1      -4.106  -3.243  -3.227  0.00  0.00    -0.233 NA
ATOM     42  H   UNL     1      -4.677  -3.915  -3.736  0.00  0.00    +0.193 HD
BRANCH  40  43
ATOM     43  O   UNL     1      -5.634  -1.781  -4.112  0.00  0.00    -0.466 OA
ATOM     44  H   UNL     1      -6.018  -2.584  -4.484  0.00  0.00    +0.297 HD
ENDBRANCH  40  43
ENDBRANCH  39  40
ENDBRANCH  14  39
TORSDOF 7
