REMARK  Name = 
REMARK  14 active torsions:
REMARK  status: ('A' for Active; 'I' for Inactive)
REMARK    1  A    between atoms: C_1  and  O_2
REMARK    2  A    between atoms: O_2  and  C_3
REMARK    3  A    between atoms: C_6  and  C_7
REMARK    4  A    between atoms: C_9  and  O_10
REMARK    5  A    between atoms: O_10  and  C_11
REMARK    6  A    between atoms: C_12  and  O_13
REMARK    7  A    between atoms: C_14  and  C_15
REMARK    8  A    between atoms: C_17  and  C_18
REMARK    9  A    between atoms: C_19  and  O_20
REMARK   10  A    between atoms: O_20  and  C_21
REMARK   11  A    between atoms: C_24  and  O_25
REMARK   12  A    between atoms: O_25  and  C_26
REMARK   13  A    between atoms: C_30  and  C_31
REMARK   14  A    between atoms: C_37  and  O_38
REMARK                            x       y       z     vdW  Elec       q    Type
REMARK                         _______ _______ _______ _____ _____    ______ ____
ROOT
ATOM      1  C   UNL     1      -2.630  -0.928   3.754  0.00  0.00    +0.172 C 
ATOM      2  C   UNL     1      -2.247  -0.627   2.376  0.00  0.00    +0.065 C 
ATOM      3  C   UNL     1      -2.919   0.247   1.593  0.00  0.00    -0.008 C 
ATOM      4  C   UNL     1      -2.710   0.536   0.121  0.00  0.00    +0.012 C 
ATOM      5  C   UNL     1      -4.019   0.221  -0.619  0.00  0.00    +0.012 C 
ATOM      6  C   UNL     1      -2.267   1.974  -0.218  0.00  0.00    +0.041 C 
ATOM      7  C   UNL     1      -0.943   2.398   0.446  0.00  0.00    +0.147 C 
ATOM      8  C   UNL     1      -0.121   3.375  -0.444  0.00  0.00    +0.150 C 
ATOM      9  C   UNL     1       0.694   2.666  -1.569  0.00  0.00    +0.040 C 
ATOM     10  C   UNL     1       1.347   3.707  -2.489  0.00  0.00    +0.014 C 
ATOM     11  C   UNL     1       1.778   1.794  -0.961  0.00  0.00    -0.019 C 
ATOM     12  C   UNL     1       2.220   0.572  -1.332  0.00  0.00    -0.033 C 
ATOM     13  C   UNL     1       3.263  -0.107  -0.472  0.00  0.00    +0.042 C 
ATOM     14  C   UNL     1       1.841  -0.250  -2.575  0.00  0.00    +0.236 C 
ATOM     15  C   UNL     1       0.727  -1.321  -2.292  0.00  0.00    +0.186 C 
ATOM     16  C   UNL     1       1.073  -2.664  -2.900  0.00  0.00    +0.008 C 
ATOM     17  C   UNL     1       1.675  -3.738  -2.364  0.00  0.00    -0.001 C 
ATOM     18  C   UNL     1       2.327  -3.908  -1.085  0.00  0.00    +0.008 C 
ATOM     19  C   UNL     1       1.892  -3.878   0.193  0.00  0.00    +0.012 C 
ATOM     20  C   UNL     1       2.893  -4.110   1.296  0.00  0.00    +0.049 C 
ATOM     21  C   UNL     1       0.471  -3.579   0.591  0.00  0.00    +0.244 C 
ATOM     22  O   UNL     1      -0.438  -3.459  -0.221  0.00  0.00    -0.270 OA
ATOM     23  N   UNL     1       0.249  -3.503   1.955  0.00  0.00    -0.279 N 
ATOM     24  C   UNL     1      -0.687  -2.666   2.532  0.00  0.00    +0.085 C 
ATOM     25  C   UNL     1      -1.193  -2.903   3.752  0.00  0.00    +0.076 C 
ATOM     26  C   UNL     1      -2.134  -2.010   4.379  0.00  0.00    +0.161 C 
ATOM     27  C   UNL     1      -1.020  -1.349   1.869  0.00  0.00    +0.211 C 
ATOM     28  O   UNL     1      -0.228  -0.830   1.087  0.00  0.00    -0.285 OA
ATOM     29  H   UNL     1       0.750  -4.136   2.562  0.00  0.00    +0.155 HD
ENDROOT
BRANCH   7  30
ATOM     30  O   UNL     1      -1.309   3.092   1.664  0.00  0.00    -0.377 OA
ATOM     31  C   UNL     1      -0.311   2.974   2.673  0.00  0.00    +0.194 C 
ENDBRANCH   7  30
BRANCH   8  32
ATOM     32  O   UNL     1      -0.989   4.381  -0.988  0.00  0.00    -0.389 OA
ATOM     33  H   UNL     1      -1.529   4.692  -0.237  0.00  0.00    +0.210 HD
ENDBRANCH   8  32
BRANCH  26  34
ATOM     34  O   UNL     1      -2.516  -2.378   5.648  0.00  0.00    -0.503 OA
ATOM     35  H   UNL     1      -3.237  -1.768   5.900  0.00  0.00    +0.292 HD
ENDBRANCH  26  34
BRANCH   1  37
ATOM     36  C   UNL     1      -2.994   1.061   4.896  0.00  0.00    +0.277 C 
ATOM     37  O   UNL     1      -3.580  -0.135   4.377  0.00  0.00    -0.491 OA
ENDBRANCH   1  37
BRANCH  15  38
ATOM     38  O   UNL     1      -0.526  -0.857  -2.848  0.00  0.00    -0.372 OA
ATOM     39  C   UNL     1      -1.632  -1.713  -2.597  0.00  0.00    +0.195 C 
ENDBRANCH  15  38
BRANCH  14  40
ATOM     40  O   UNL     1       1.474   0.653  -3.638  0.00  0.00    -0.440 OA
BRANCH  40  41
ATOM     41  C   UNL     1       1.647   0.201  -4.893  0.00  0.00    +0.398 C 
ATOM     42  N   UNL     1       1.172   1.113  -5.770  0.00  0.00    -0.295 N 
ATOM     43  O   UNL     1       2.161  -0.851  -5.237  0.00  0.00    -0.227 OA
ATOM     44  H   UNL     1       0.736   1.951  -5.417  0.00  0.00    +0.148 HD
ATOM     45  H   UNL     1       1.217   0.921  -6.758  0.00  0.00    +0.148 HD
ENDBRANCH  40  41
ENDBRANCH  14  40
TORSDOF 7
