REMARK  Name = 
REMARK  14 active torsions:
REMARK  status: ('A' for Active; 'I' for Inactive)
REMARK    1  A    between atoms: C_1  and  O_2
REMARK    2  A    between atoms: O_2  and  C_3
REMARK    3  A    between atoms: C_6  and  C_7
REMARK    4  A    between atoms: C_9  and  O_10
REMARK    5  A    between atoms: O_10  and  C_11
REMARK    6  A    between atoms: C_12  and  O_13
REMARK    7  A    between atoms: C_14  and  C_15
REMARK    8  A    between atoms: C_17  and  C_18
REMARK    9  A    between atoms: C_19  and  O_20
REMARK   10  A    between atoms: O_20  and  C_21
REMARK   11  A    between atoms: C_21  and  O_23
REMARK   12  A    between atoms: C_24  and  O_25
REMARK   13  A    between atoms: O_25  and  C_26
REMARK   14  A    between atoms: C_30  and  C_31
REMARK                            x       y       z     vdW  Elec       q    Type
REMARK                         _______ _______ _______ _____ _____    ______ ____
ROOT
ATOM      1  C   UNL     1      -2.190   0.152  -3.295  0.00  0.00    +0.173 C 
ATOM      2  C   UNL     1      -1.204  -0.451  -2.611  0.00  0.00    +0.047 C 
ATOM      3  C   UNL     1      -0.915  -1.938  -2.678  0.00  0.00    +0.046 C 
ATOM      4  C   UNL     1      -1.647  -2.745  -1.572  0.00  0.00    -0.007 C 
ATOM      5  C   UNL     1      -3.030  -3.200  -2.051  0.00  0.00    +0.008 C 
ATOM      6  C   UNL     1      -0.813  -3.974  -1.138  0.00  0.00    +0.037 C 
ATOM      7  C   UNL     1       0.187  -3.630  -0.009  0.00  0.00    +0.147 C 
ATOM      8  C   UNL     1      -0.430  -3.805   1.417  0.00  0.00    +0.150 C 
ATOM      9  C   UNL     1       0.228  -2.945   2.544  0.00  0.00    +0.040 C 
ATOM     10  C   UNL     1       1.734  -3.172   2.669  0.00  0.00    +0.014 C 
ATOM     11  C   UNL     1      -0.056  -1.465   2.362  0.00  0.00    -0.019 C 
ATOM     12  C   UNL     1      -0.635  -0.591   3.214  0.00  0.00    -0.033 C 
ATOM     13  C   UNL     1      -1.048  -0.916   4.622  0.00  0.00    +0.042 C 
ATOM     14  C   UNL     1      -0.963   0.843   2.769  0.00  0.00    +0.236 C 
ATOM     15  C   UNL     1       0.261   1.823   2.817  0.00  0.00    +0.186 C 
ATOM     16  C   UNL     1      -0.112   3.223   2.354  0.00  0.00    +0.008 C 
ATOM     17  C   UNL     1       0.555   4.148   1.643  0.00  0.00    -0.001 C 
ATOM     18  C   UNL     1       1.905   4.109   1.128  0.00  0.00    +0.008 C 
ATOM     19  C   UNL     1       2.457   3.380   0.136  0.00  0.00    +0.012 C 
ATOM     20  C   UNL     1       3.928   3.511  -0.167  0.00  0.00    +0.049 C 
ATOM     21  C   UNL     1       1.774   2.366  -0.748  0.00  0.00    +0.244 C 
ATOM     22  O   UNL     1       2.442   1.504  -1.314  0.00  0.00    -0.270 OA
ATOM     23  N   UNL     1       0.456   2.641  -1.028  0.00  0.00    -0.279 N 
ATOM     24  C   UNL     1      -0.429   1.826  -1.708  0.00  0.00    +0.085 C 
ATOM     25  C   UNL     1      -1.485   2.383  -2.308  0.00  0.00    +0.081 C 
ATOM     26  C   UNL     1      -2.474   1.599  -3.062  0.00  0.00    +0.222 C 
ATOM     27  O   UNL     1      -3.486   2.161  -3.469  0.00  0.00    -0.284 OA
ATOM     28  C   UNL     1      -0.302   0.329  -1.708  0.00  0.00    +0.207 C 
ATOM     29  O   UNL     1       0.465  -0.276  -0.967  0.00  0.00    -0.286 OA
ATOM     30  H   UNL     1       0.135   3.561  -0.764  0.00  0.00    +0.155 HD
ENDROOT
BRANCH   7  31
ATOM     31  O   UNL     1       1.323  -4.513  -0.099  0.00  0.00    -0.377 OA
ATOM     32  C   UNL     1       2.319  -4.035  -0.998  0.00  0.00    +0.194 C 
ENDBRANCH   7  31
BRANCH   8  33
ATOM     33  O   UNL     1      -1.850  -3.577   1.442  0.00  0.00    -0.389 OA
ATOM     34  H   UNL     1      -1.985  -2.613   1.415  0.00  0.00    +0.210 HD
ENDBRANCH   8  33
BRANCH  15  35
ATOM     35  O   UNL     1       1.348   1.334   2.036  0.00  0.00    -0.372 OA
ATOM     36  C   UNL     1       2.481   0.964   2.808  0.00  0.00    +0.195 C 
ENDBRANCH  15  35
BRANCH   1  38
ATOM     37  C   UNL     1      -3.310   0.022  -5.376  0.00  0.00    +0.277 C 
ATOM     38  O   UNL     1      -3.003  -0.602  -4.132  0.00  0.00    -0.491 OA
ENDBRANCH   1  38
BRANCH  14  39
ATOM     39  O   UNL     1      -1.535   0.762   1.438  0.00  0.00    -0.439 OA
BRANCH  39  40
ATOM     40  C   UNL     1      -2.740   1.309   1.230  0.00  0.00    +0.381 C 
ATOM     41  N   UNL     1      -3.388   2.054   2.043  0.00  0.00    -0.233 NA
ATOM     42  H   UNL     1      -4.283   2.336   1.646  0.00  0.00    +0.193 HD
BRANCH  40  43
ATOM     43  O   UNL     1      -3.215   0.984   0.024  0.00  0.00    -0.466 OA
ATOM     44  H   UNL     1      -4.109   1.326  -0.113  0.00  0.00    +0.297 HD
ENDBRANCH  40  43
ENDBRANCH  39  40
ENDBRANCH  14  39
TORSDOF 7
