REMARK  Name = 
REMARK  14 active torsions:
REMARK  status: ('A' for Active; 'I' for Inactive)
REMARK    1  A    between atoms: C_1  and  O_2
REMARK    2  A    between atoms: O_2  and  C_3
REMARK    3  A    between atoms: C_6  and  C_7
REMARK    4  A    between atoms: C_9  and  O_10
REMARK    5  A    between atoms: O_10  and  C_11
REMARK    6  A    between atoms: C_12  and  O_13
REMARK    7  A    between atoms: C_14  and  C_15
REMARK    8  A    between atoms: C_17  and  C_18
REMARK    9  A    between atoms: C_19  and  O_20
REMARK   10  A    between atoms: O_20  and  C_21
REMARK   11  A    between atoms: C_24  and  O_25
REMARK   12  A    between atoms: O_25  and  C_26
REMARK   13  A    between atoms: C_30  and  C_31
REMARK   14  A    between atoms: C_37  and  O_38
REMARK                            x       y       z     vdW  Elec       q    Type
REMARK                         _______ _______ _______ _____ _____    ______ ____
ROOT
ATOM      1  C   UNL     1       3.944  -0.925  -3.926  0.00  0.00    +0.172 C 
ATOM      2  C   UNL     1       3.174  -0.249  -2.873  0.00  0.00    +0.065 C 
ATOM      3  C   UNL     1       3.060   1.097  -2.840  0.00  0.00    -0.008 C 
ATOM      4  C   UNL     1       2.392   2.107  -1.911  0.00  0.00    +0.012 C 
ATOM      5  C   UNL     1       2.068   3.356  -2.765  0.00  0.00    +0.012 C 
ATOM      6  C   UNL     1       1.116   1.694  -1.135  0.00  0.00    +0.041 C 
ATOM      7  C   UNL     1       0.980   2.304   0.284  0.00  0.00    +0.147 C 
ATOM      8  C   UNL     1       1.854   1.624   1.387  0.00  0.00    +0.150 C 
ATOM      9  C   UNL     1       1.147   0.420   2.070  0.00  0.00    +0.040 C 
ATOM     10  C   UNL     1       2.139  -0.394   2.919  0.00  0.00    +0.014 C 
ATOM     11  C   UNL     1       0.024   0.881   2.984  0.00  0.00    -0.019 C 
ATOM     12  C   UNL     1      -1.295   0.597   2.914  0.00  0.00    -0.033 C 
ATOM     13  C   UNL     1      -2.213   1.122   3.993  0.00  0.00    +0.042 C 
ATOM     14  C   UNL     1      -1.966  -0.231   1.808  0.00  0.00    +0.236 C 
ATOM     15  C   UNL     1      -2.282  -1.702   2.239  0.00  0.00    +0.186 C 
ATOM     16  C   UNL     1      -1.037  -2.512   2.559  0.00  0.00    +0.008 C 
ATOM     17  C   UNL     1      -0.486  -3.581   1.959  0.00  0.00    -0.001 C 
ATOM     18  C   UNL     1      -0.987  -4.256   0.789  0.00  0.00    +0.008 C 
ATOM     19  C   UNL     1      -0.719  -3.970  -0.496  0.00  0.00    +0.012 C 
ATOM     20  C   UNL     1      -1.404  -4.687  -1.622  0.00  0.00    +0.049 C 
ATOM     21  C   UNL     1       0.217  -2.869  -0.887  0.00  0.00    +0.244 C 
ATOM     22  O   UNL     1       0.004  -1.709  -0.575  0.00  0.00    -0.270 OA
ATOM     23  N   UNL     1       1.224  -3.317  -1.718  0.00  0.00    -0.279 N 
ATOM     24  C   UNL     1       2.185  -2.542  -2.335  0.00  0.00    +0.085 C 
ATOM     25  C   UNL     1       2.812  -3.015  -3.427  0.00  0.00    +0.076 C 
ATOM     26  C   UNL     1       3.762  -2.233  -4.169  0.00  0.00    +0.161 C 
ATOM     27  C   UNL     1       2.615  -1.180  -1.824  0.00  0.00    +0.211 C 
ATOM     28  O   UNL     1       2.680  -0.915  -0.627  0.00  0.00    -0.285 OA
ATOM     29  H   UNL     1       1.189  -4.290  -1.989  0.00  0.00    +0.155 HD
ENDROOT
BRANCH   7  30
ATOM     30  O   UNL     1       1.307   3.708   0.203  0.00  0.00    -0.377 OA
ATOM     31  C   UNL     1       0.545   4.501   1.104  0.00  0.00    +0.194 C 
ENDBRANCH   7  30
BRANCH   8  32
ATOM     32  O   UNL     1       3.142   1.235   0.893  0.00  0.00    -0.389 OA
ATOM     33  H   UNL     1       2.999   0.429   0.346  0.00  0.00    +0.210 HD
ENDBRANCH   8  32
BRANCH  26  34
ATOM     34  O   UNL     1       4.413  -2.907  -5.174  0.00  0.00    -0.503 OA
ATOM     35  H   UNL     1       4.937  -2.235  -5.653  0.00  0.00    +0.292 HD
ENDBRANCH  26  34
BRANCH   1  37
ATOM     36  C   UNL     1       6.071  -0.000  -3.981  0.00  0.00    +0.277 C 
ATOM     37  O   UNL     1       4.840  -0.190  -4.687  0.00  0.00    -0.491 OA
ENDBRANCH   1  37
BRANCH  15  38
ATOM     38  O   UNL     1      -3.071  -2.332   1.214  0.00  0.00    -0.372 OA
ATOM     39  C   UNL     1      -4.155  -3.083   1.740  0.00  0.00    +0.195 C 
ENDBRANCH  15  38
BRANCH  14  40
ATOM     40  O   UNL     1      -3.244   0.398   1.511  0.00  0.00    -0.440 OA
BRANCH  40  41
ATOM     41  C   UNL     1      -3.297   1.190   0.424  0.00  0.00    +0.398 C 
ATOM     42  N   UNL     1      -4.563   1.634   0.251  0.00  0.00    -0.295 N 
ATOM     43  O   UNL     1      -2.382   1.507  -0.316  0.00  0.00    -0.227 OA
ATOM     44  H   UNL     1      -4.761   2.238  -0.532  0.00  0.00    +0.148 HD
ATOM     45  H   UNL     1      -5.290   1.338   0.880  0.00  0.00    +0.148 HD
ENDBRANCH  40  41
ENDBRANCH  14  40
TORSDOF 7
