REMARK  Name = 
REMARK  14 active torsions:
REMARK  status: ('A' for Active; 'I' for Inactive)
REMARK    1  A    between atoms: C_1  and  O_2
REMARK    2  A    between atoms: O_2  and  C_3
REMARK    3  A    between atoms: C_6  and  C_7
REMARK    4  A    between atoms: C_9  and  O_10
REMARK    5  A    between atoms: O_10  and  C_11
REMARK    6  A    between atoms: C_12  and  O_13
REMARK    7  A    between atoms: C_14  and  C_15
REMARK    8  A    between atoms: C_17  and  C_18
REMARK    9  A    between atoms: C_19  and  O_20
REMARK   10  A    between atoms: O_20  and  C_21
REMARK   11  A    between atoms: C_21  and  O_23
REMARK   12  A    between atoms: C_24  and  O_25
REMARK   13  A    between atoms: O_25  and  C_26
REMARK   14  A    between atoms: C_30  and  C_31
REMARK                            x       y       z     vdW  Elec       q    Type
REMARK                         _______ _______ _______ _____ _____    ______ ____
ROOT
ATOM      1  C   UNL     1      -3.808   0.243   3.190  0.00  0.00    +0.173 C 
ATOM      2  C   UNL     1      -3.355   0.911   2.113  0.00  0.00    +0.047 C 
ATOM      3  C   UNL     1      -2.748   2.296   2.151  0.00  0.00    +0.046 C 
ATOM      4  C   UNL     1      -1.207   2.355   2.347  0.00  0.00    -0.007 C 
ATOM      5  C   UNL     1      -0.796   1.776   3.706  0.00  0.00    +0.008 C 
ATOM      6  C   UNL     1      -0.411   1.727   1.167  0.00  0.00    +0.037 C 
ATOM      7  C   UNL     1       1.125   1.777   1.349  0.00  0.00    +0.147 C 
ATOM      8  C   UNL     1       1.902   1.162   0.142  0.00  0.00    +0.150 C 
ATOM      9  C   UNL     1       1.875   1.927  -1.213  0.00  0.00    +0.040 C 
ATOM     10  C   UNL     1       2.321   3.393  -1.135  0.00  0.00    +0.014 C 
ATOM     11  C   UNL     1       2.772   1.242  -2.242  0.00  0.00    -0.019 C 
ATOM     12  C   UNL     1       2.504   0.367  -3.238  0.00  0.00    -0.033 C 
ATOM     13  C   UNL     1       3.651  -0.013  -4.153  0.00  0.00    +0.042 C 
ATOM     14  C   UNL     1       1.157  -0.270  -3.626  0.00  0.00    +0.236 C 
ATOM     15  C   UNL     1       1.218  -1.830  -3.810  0.00  0.00    +0.186 C 
ATOM     16  C   UNL     1       0.004  -2.373  -4.545  0.00  0.00    +0.008 C 
ATOM     17  C   UNL     1      -1.183  -2.825  -4.104  0.00  0.00    -0.001 C 
ATOM     18  C   UNL     1      -1.666  -2.818  -2.741  0.00  0.00    +0.008 C 
ATOM     19  C   UNL     1      -2.865  -3.272  -2.326  0.00  0.00    +0.012 C 
ATOM     20  C   UNL     1      -3.912  -3.993  -3.119  0.00  0.00    +0.049 C 
ATOM     21  C   UNL     1      -3.238  -3.065  -0.891  0.00  0.00    +0.244 C 
ATOM     22  O   UNL     1      -3.580  -4.012  -0.196  0.00  0.00    -0.270 OA
ATOM     23  N   UNL     1      -3.232  -1.738  -0.519  0.00  0.00    -0.279 N 
ATOM     24  C   UNL     1      -3.591  -1.187   0.695  0.00  0.00    +0.085 C 
ATOM     25  C   UNL     1      -4.016  -1.853   1.772  0.00  0.00    +0.081 C 
ATOM     26  C   UNL     1      -4.354  -1.146   3.022  0.00  0.00    +0.222 C 
ATOM     27  O   UNL     1      -5.013  -1.718   3.881  0.00  0.00    -0.284 OA
ATOM     28  C   UNL     1      -3.532   0.304   0.771  0.00  0.00    +0.207 C 
ATOM     29  O   UNL     1      -3.619   0.991  -0.245  0.00  0.00    -0.286 OA
ATOM     30  H   UNL     1      -2.919  -1.059  -1.215  0.00  0.00    +0.155 HD
ENDROOT
BRANCH   7  31
ATOM     31  O   UNL     1       1.474   3.136   1.645  0.00  0.00    -0.377 OA
ATOM     32  C   UNL     1       2.695   3.275   2.362  0.00  0.00    +0.194 C 
ENDBRANCH   7  31
BRANCH   8  33
ATOM     33  O   UNL     1       3.264   0.938   0.563  0.00  0.00    -0.389 OA
ATOM     34  H   UNL     1       3.647   0.313  -0.078  0.00  0.00    +0.210 HD
ENDBRANCH   8  33
BRANCH  15  35
ATOM     35  O   UNL     1       1.400  -2.471  -2.537  0.00  0.00    -0.372 OA
ATOM     36  C   UNL     1       2.000  -3.755  -2.636  0.00  0.00    +0.195 C 
ENDBRANCH  15  35
BRANCH   1  38
ATOM     37  C   UNL     1      -3.583   0.011   5.556  0.00  0.00    +0.277 C 
ATOM     38  O   UNL     1      -3.774   0.865   4.432  0.00  0.00    -0.491 OA
ENDBRANCH   1  38
BRANCH  14  39
ATOM     39  O   UNL     1       0.181  -0.008  -2.606  0.00  0.00    -0.439 OA
BRANCH  39  40
ATOM     40  C   UNL     1      -0.981   0.558  -2.943  0.00  0.00    +0.381 C 
ATOM     41  N   UNL     1      -1.293   1.074  -4.068  0.00  0.00    -0.233 NA
ATOM     42  H   UNL     1      -2.250   1.428  -4.040  0.00  0.00    +0.193 HD
BRANCH  40  43
ATOM     43  O   UNL     1      -1.805   0.519  -1.901  0.00  0.00    -0.466 OA
ATOM     44  H   UNL     1      -2.576   1.106  -1.983  0.00  0.00    +0.297 HD
ENDBRANCH  40  43
ENDBRANCH  39  40
ENDBRANCH  14  39
TORSDOF 7
