REMARK  Name = 
REMARK  15 active torsions:
REMARK  status: ('A' for Active; 'I' for Inactive)
REMARK    1  A    between atoms: C_1  and  O_2
REMARK    2  A    between atoms: O_2  and  C_3
REMARK    3  A    between atoms: C_6  and  C_7
REMARK    4  A    between atoms: C_9  and  O_10
REMARK    5  A    between atoms: O_10  and  C_11
REMARK    6  A    between atoms: C_12  and  O_13
REMARK    7  A    between atoms: C_14  and  C_15
REMARK    8  A    between atoms: C_17  and  C_18
REMARK    9  A    between atoms: C_19  and  O_20
REMARK   10  A    between atoms: O_20  and  C_21
REMARK   11  A    between atoms: C_24  and  O_25
REMARK   12  A    between atoms: O_25  and  C_26
REMARK   13  A    between atoms: C_30  and  C_31
REMARK   14  A    between atoms: C_32  and  O_33
REMARK   15  A    between atoms: C_37  and  O_38
REMARK                            x       y       z     vdW  Elec       q    Type
REMARK                         _______ _______ _______ _____ _____    ______ ____
ROOT
ATOM      1  C   UNL     1      -0.918  -1.732   1.016  0.00  0.00    +0.172 C 
ATOM      2  C   UNL     1       0.239  -2.202   0.227  0.00  0.00    +0.065 C 
ATOM      3  C   UNL     1       1.470  -2.309   0.779  0.00  0.00    -0.008 C 
ATOM      4  C   UNL     1       2.803  -2.860   0.309  0.00  0.00    +0.012 C 
ATOM      5  C   UNL     1       2.810  -3.925  -0.791  0.00  0.00    +0.012 C 
ATOM      6  C   UNL     1       3.917  -1.802   0.104  0.00  0.00    +0.041 C 
ATOM      7  C   UNL     1       3.520  -0.463  -0.577  0.00  0.00    +0.147 C 
ATOM      8  C   UNL     1       3.683   0.715   0.431  0.00  0.00    +0.150 C 
ATOM      9  C   UNL     1       3.449   2.159  -0.111  0.00  0.00    +0.040 C 
ATOM     10  C   UNL     1       4.669   2.706  -0.865  0.00  0.00    +0.014 C 
ATOM     11  C   UNL     1       2.216   2.309  -0.979  0.00  0.00    -0.019 C 
ATOM     12  C   UNL     1       0.981   2.720  -0.616  0.00  0.00    -0.033 C 
ATOM     13  C   UNL     1       0.584   3.060   0.797  0.00  0.00    +0.042 C 
ATOM     14  C   UNL     1      -0.135   2.830  -1.668  0.00  0.00    +0.236 C 
ATOM     15  C   UNL     1      -1.036   1.544  -1.666  0.00  0.00    +0.186 C 
ATOM     16  C   UNL     1      -0.532   0.541  -2.687  0.00  0.00    +0.008 C 
ATOM     17  C   UNL     1      -1.167  -0.346  -3.468  0.00  0.00    -0.001 C 
ATOM     18  C   UNL     1      -2.586  -0.578  -3.549  0.00  0.00    +0.008 C 
ATOM     19  C   UNL     1      -3.175  -1.782  -3.667  0.00  0.00    +0.011 C 
ATOM     20  C   UNL     1      -4.657  -1.937  -3.827  0.00  0.00    +0.049 C 
ATOM     21  C   UNL     1      -2.407  -3.053  -3.616  0.00  0.00    +0.216 C 
ATOM     22  N   UNL     1      -1.668  -3.629  -2.739  0.00  0.00    -0.209 NA
ATOM     23  C   UNL     1      -1.441  -2.982  -1.544  0.00  0.00    +0.118 C 
ATOM     24  C   UNL     1      -2.398  -2.766  -0.626  0.00  0.00    +0.081 C 
ATOM     25  C   UNL     1      -2.170  -2.016   0.589  0.00  0.00    +0.161 C 
ATOM     26  C   UNL     1      -0.032  -2.538  -1.217  0.00  0.00    +0.215 C 
ATOM     27  O   UNL     1       0.817  -2.424  -2.097  0.00  0.00    -0.285 OA
ENDROOT
BRANCH   7  28
ATOM     28  O   UNL     1       4.396  -0.213  -1.688  0.00  0.00    -0.377 OA
ATOM     29  C   UNL     1       4.012  -0.910  -2.868  0.00  0.00    +0.194 C 
ENDBRANCH   7  28
BRANCH   8  30
ATOM     30  O   UNL     1       2.817   0.492   1.558  0.00  0.00    -0.389 OA
ATOM     31  H   UNL     1       3.001   1.191   2.208  0.00  0.00    +0.210 HD
ENDBRANCH   8  30
BRANCH  25  32
ATOM     32  O   UNL     1      -3.309  -1.627   1.259  0.00  0.00    -0.503 OA
ATOM     33  H   UNL     1      -4.095  -1.906   0.761  0.00  0.00    +0.292 HD
ENDBRANCH  25  32
BRANCH   1  35
ATOM     34  C   UNL     1      -1.558  -0.455   2.974  0.00  0.00    +0.277 C 
ATOM     35  O   UNL     1      -0.558  -1.015   2.138  0.00  0.00    -0.491 OA
ENDBRANCH   1  35
BRANCH  15  36
ATOM     36  O   UNL     1      -2.416   1.850  -1.895  0.00  0.00    -0.372 OA
ATOM     37  C   UNL     1      -3.160   1.950  -0.689  0.00  0.00    +0.195 C 
ENDBRANCH  15  36
BRANCH  21  38
ATOM     38  O   UNL     1      -2.594  -3.724  -4.766  0.00  0.00    -0.492 OA
ATOM     39  H   UNL     1      -2.045  -4.524  -4.714  0.00  0.00    +0.294 HD
ENDBRANCH  21  38
BRANCH  14  40
ATOM     40  O   UNL     1      -0.887   4.026  -1.373  0.00  0.00    -0.440 OA
BRANCH  40  41
ATOM     41  C   UNL     1      -1.420   4.650  -2.444  0.00  0.00    +0.398 C 
ATOM     42  N   UNL     1      -2.132   5.725  -2.035  0.00  0.00    -0.295 N 
ATOM     43  O   UNL     1      -1.294   4.344  -3.618  0.00  0.00    -0.227 OA
ATOM     44  H   UNL     1      -2.589   6.295  -2.729  0.00  0.00    +0.148 HD
ATOM     45  H   UNL     1      -2.194   5.946  -1.055  0.00  0.00    +0.148 HD
ENDBRANCH  40  41
ENDBRANCH  14  40
TORSDOF 8
