REMARK  Name = 
REMARK  14 active torsions:
REMARK  status: ('A' for Active; 'I' for Inactive)
REMARK    1  A    between atoms: C_1  and  O_2
REMARK    2  A    between atoms: O_2  and  C_3
REMARK    3  A    between atoms: C_6  and  C_7
REMARK    4  A    between atoms: C_9  and  O_10
REMARK    5  A    between atoms: O_10  and  C_11
REMARK    6  A    between atoms: C_12  and  O_13
REMARK    7  A    between atoms: C_14  and  C_15
REMARK    8  A    between atoms: C_17  and  C_18
REMARK    9  A    between atoms: C_19  and  O_20
REMARK   10  A    between atoms: O_20  and  C_21
REMARK   11  A    between atoms: C_24  and  O_25
REMARK   12  A    between atoms: O_25  and  C_26
REMARK   13  A    between atoms: C_30  and  C_31
REMARK   14  A    between atoms: C_32  and  O_33
REMARK                            x       y       z     vdW  Elec       q    Type
REMARK                         _______ _______ _______ _____ _____    ______ ____
ROOT
ATOM      1  C   UNL     1      -4.271  -1.534  -0.941  0.00  0.00    +0.173 C 
ATOM      2  C   UNL     1      -3.186  -0.944  -1.473  0.00  0.00    +0.047 C 
ATOM      3  C   UNL     1      -2.855  -0.899  -2.951  0.00  0.00    +0.046 C 
ATOM      4  C   UNL     1      -1.728  -1.887  -3.385  0.00  0.00    -0.007 C 
ATOM      5  C   UNL     1      -1.638  -1.910  -4.913  0.00  0.00    +0.008 C 
ATOM      6  C   UNL     1      -0.371  -1.504  -2.752  0.00  0.00    +0.037 C 
ATOM      7  C   UNL     1       0.841  -2.407  -3.036  0.00  0.00    +0.147 C 
ATOM      8  C   UNL     1       2.132  -1.792  -2.390  0.00  0.00    +0.150 C 
ATOM      9  C   UNL     1       2.090  -1.552  -0.853  0.00  0.00    +0.040 C 
ATOM     10  C   UNL     1       2.135  -2.842  -0.027  0.00  0.00    +0.014 C 
ATOM     11  C   UNL     1       3.233  -0.647  -0.407  0.00  0.00    -0.019 C 
ATOM     12  C   UNL     1       3.208   0.687  -0.180  0.00  0.00    -0.033 C 
ATOM     13  C   UNL     1       4.466   1.376   0.294  0.00  0.00    +0.042 C 
ATOM     14  C   UNL     1       1.999   1.601  -0.425  0.00  0.00    +0.236 C 
ATOM     15  C   UNL     1       1.445   2.309   0.867  0.00  0.00    +0.186 C 
ATOM     16  C   UNL     1       0.074   2.878   0.590  0.00  0.00    +0.008 C 
ATOM     17  C   UNL     1      -1.079   2.799   1.272  0.00  0.00    -0.001 C 
ATOM     18  C   UNL     1      -1.389   2.234   2.563  0.00  0.00    +0.008 C 
ATOM     19  C   UNL     1      -1.214   1.000   3.066  0.00  0.00    +0.011 C 
ATOM     20  C   UNL     1      -1.659   0.636   4.454  0.00  0.00    +0.049 C 
ATOM     21  C   UNL     1      -0.552  -0.100   2.344  0.00  0.00    +0.216 C 
ATOM     22  N   UNL     1      -0.870  -0.889   1.392  0.00  0.00    -0.209 NA
ATOM     23  C   UNL     1      -2.114  -0.809   0.819  0.00  0.00    +0.118 C 
ATOM     24  C   UNL     1      -3.191  -1.403   1.341  0.00  0.00    +0.086 C 
ATOM     25  C   UNL     1      -4.429  -1.539   0.554  0.00  0.00    +0.223 C 
ATOM     26  O   UNL     1      -5.495  -1.728   1.125  0.00  0.00    -0.284 OA
ATOM     27  C   UNL     1      -2.242  -0.245  -0.561  0.00  0.00    +0.211 C 
ATOM     28  O   UNL     1      -1.559   0.694  -0.952  0.00  0.00    -0.285 OA
ENDROOT
BRANCH   7  29
ATOM     29  O   UNL     1       0.489  -3.711  -2.552  0.00  0.00    -0.377 OA
ATOM     30  C   UNL     1       1.333  -4.756  -3.014  0.00  0.00    +0.194 C 
ENDBRANCH   7  29
BRANCH   8  31
ATOM     31  O   UNL     1       3.289  -2.572  -2.736  0.00  0.00    -0.389 OA
ATOM     32  H   UNL     1       3.446  -2.428  -3.685  0.00  0.00    +0.210 HD
ENDBRANCH   8  31
BRANCH  21  33
ATOM     33  O   UNL     1       0.654  -0.314   2.903  0.00  0.00    -0.492 OA
ATOM     34  H   UNL     1       1.078  -1.031   2.403  0.00  0.00    +0.294 HD
ENDBRANCH  21  33
BRANCH   1  36
ATOM     35  C   UNL     1      -5.904  -3.241  -1.248  0.00  0.00    +0.277 C 
ATOM     36  O   UNL     1      -5.211  -2.116  -1.780  0.00  0.00    -0.491 OA
ENDBRANCH   1  36
BRANCH  15  37
ATOM     37  O   UNL     1       2.306   3.405   1.236  0.00  0.00    -0.372 OA
ATOM     38  C   UNL     1       2.234   3.715   2.622  0.00  0.00    +0.195 C 
ENDBRANCH  15  37
BRANCH  14  39
ATOM     39  O   UNL     1       2.410   2.628  -1.366  0.00  0.00    -0.440 OA
BRANCH  39  40
ATOM     40  C   UNL     1       2.094   2.462  -2.660  0.00  0.00    +0.398 C 
ATOM     41  N   UNL     1       2.524   3.531  -3.366  0.00  0.00    -0.295 N 
ATOM     42  O   UNL     1       1.514   1.519  -3.172  0.00  0.00    -0.227 OA
ATOM     43  H   UNL     1       2.996   4.281  -2.885  0.00  0.00    +0.148 HD
ATOM     44  H   UNL     1       2.360   3.567  -4.359  0.00  0.00    +0.148 HD
ENDBRANCH  39  40
ENDBRANCH  14  39
TORSDOF 7
