REMARK  Name = 
REMARK  14 active torsions:
REMARK  status: ('A' for Active; 'I' for Inactive)
REMARK    1  A    between atoms: C_1  and  O_2
REMARK    2  A    between atoms: O_2  and  C_3
REMARK    3  A    between atoms: C_6  and  C_7
REMARK    4  A    between atoms: C_9  and  O_10
REMARK    5  A    between atoms: O_10  and  C_11
REMARK    6  A    between atoms: C_12  and  O_13
REMARK    7  A    between atoms: C_14  and  C_15
REMARK    8  A    between atoms: C_17  and  C_18
REMARK    9  A    between atoms: C_19  and  O_20
REMARK   10  A    between atoms: O_20  and  C_21
REMARK   11  A    between atoms: C_24  and  O_25
REMARK   12  A    between atoms: O_25  and  C_26
REMARK   13  A    between atoms: C_30  and  C_31
REMARK   14  A    between atoms: C_32  and  O_33
REMARK                            x       y       z     vdW  Elec       q    Type
REMARK                         _______ _______ _______ _____ _____    ______ ____
ROOT
ATOM      1  C   UNL     1      -0.974   0.541  -3.787  0.00  0.00    +0.173 C 
ATOM      2  C   UNL     1      -0.456  -0.491  -3.099  0.00  0.00    +0.047 C 
ATOM      3  C   UNL     1      -1.173  -1.814  -2.936  0.00  0.00    +0.046 C 
ATOM      4  C   UNL     1      -2.261  -1.863  -1.835  0.00  0.00    -0.007 C 
ATOM      5  C   UNL     1      -2.969  -3.221  -1.906  0.00  0.00    +0.008 C 
ATOM      6  C   UNL     1      -1.673  -1.593  -0.431  0.00  0.00    +0.037 C 
ATOM      7  C   UNL     1      -2.680  -1.693   0.735  0.00  0.00    +0.147 C 
ATOM      8  C   UNL     1      -2.000  -1.298   2.082  0.00  0.00    +0.150 C 
ATOM      9  C   UNL     1      -1.752   0.238   2.225  0.00  0.00    +0.040 C 
ATOM     10  C   UNL     1      -2.703   0.926   3.206  0.00  0.00    +0.014 C 
ATOM     11  C   UNL     1      -0.263   0.503   2.397  0.00  0.00    -0.019 C 
ATOM     12  C   UNL     1       0.477   1.127   3.339  0.00  0.00    -0.033 C 
ATOM     13  C   UNL     1      -0.052   1.690   4.627  0.00  0.00    +0.042 C 
ATOM     14  C   UNL     1       1.980   1.319   3.088  0.00  0.00    +0.236 C 
ATOM     15  C   UNL     1       2.386   2.820   2.912  0.00  0.00    +0.186 C 
ATOM     16  C   UNL     1       1.487   3.601   1.971  0.00  0.00    +0.008 C 
ATOM     17  C   UNL     1       1.269   3.416   0.659  0.00  0.00    -0.001 C 
ATOM     18  C   UNL     1       1.916   2.432  -0.175  0.00  0.00    +0.008 C 
ATOM     19  C   UNL     1       3.035   2.648  -0.887  0.00  0.00    +0.011 C 
ATOM     20  C   UNL     1       3.814   3.929  -0.934  0.00  0.00    +0.049 C 
ATOM     21  C   UNL     1       3.584   1.529  -1.694  0.00  0.00    +0.216 C 
ATOM     22  N   UNL     1       3.104   0.711  -2.557  0.00  0.00    -0.209 NA
ATOM     23  C   UNL     1       1.771   0.769  -2.890  0.00  0.00    +0.118 C 
ATOM     24  C   UNL     1       1.246   1.760  -3.616  0.00  0.00    +0.086 C 
ATOM     25  C   UNL     1      -0.168   1.780  -4.017  0.00  0.00    +0.223 C 
ATOM     26  O   UNL     1      -0.623   2.787  -4.548  0.00  0.00    -0.284 OA
ATOM     27  C   UNL     1       0.902  -0.391  -2.496  0.00  0.00    +0.211 C 
ATOM     28  O   UNL     1       1.294  -1.236  -1.695  0.00  0.00    -0.285 OA
ENDROOT
BRANCH   7  29
ATOM     29  O   UNL     1      -3.798  -0.851   0.416  0.00  0.00    -0.377 OA
ATOM     30  C   UNL     1      -5.004  -1.239   1.062  0.00  0.00    +0.194 C 
ENDBRANCH   7  29
BRANCH   8  31
ATOM     31  O   UNL     1      -2.773  -1.800   3.184  0.00  0.00    -0.389 OA
ATOM     32  H   UNL     1      -2.648  -2.764   3.204  0.00  0.00    +0.210 HD
ENDBRANCH   8  31
BRANCH  21  33
ATOM     33  O   UNL     1       4.897   1.400  -1.439  0.00  0.00    -0.492 OA
ATOM     34  H   UNL     1       5.207   0.624  -1.936  0.00  0.00    +0.294 HD
ENDBRANCH  21  33
BRANCH   1  36
ATOM     35  C   UNL     1      -3.121   1.484  -4.009  0.00  0.00    +0.277 C 
ATOM     36  O   UNL     1      -2.238   0.417  -4.350  0.00  0.00    -0.491 OA
ENDBRANCH   1  36
BRANCH  15  37
ATOM     37  O   UNL     1       3.745   2.880   2.444  0.00  0.00    -0.372 OA
ATOM     38  C   UNL     1       4.406   4.087   2.797  0.00  0.00    +0.195 C 
ENDBRANCH  15  37
BRANCH  14  39
ATOM     39  O   UNL     1       2.709   0.793   4.224  0.00  0.00    -0.440 OA
BRANCH  39  40
ATOM     40  C   UNL     1       3.023  -0.516   4.163  0.00  0.00    +0.398 C 
ATOM     41  N   UNL     1       3.728  -0.866   5.262  0.00  0.00    -0.295 N 
ATOM     42  O   UNL     1       2.737  -1.306   3.279  0.00  0.00    -0.227 OA
ATOM     43  H   UNL     1       3.947  -0.176   5.962  0.00  0.00    +0.148 HD
ATOM     44  H   UNL     1       4.040  -1.821   5.356  0.00  0.00    +0.148 HD
ENDBRANCH  39  40
ENDBRANCH  14  39
TORSDOF 7
