REMARK  Name = 
REMARK  15 active torsions:
REMARK  status: ('A' for Active; 'I' for Inactive)
REMARK    1  A    between atoms: C_1  and  O_2
REMARK    2  A    between atoms: O_2  and  C_3
REMARK    3  A    between atoms: C_6  and  C_7
REMARK    4  A    between atoms: C_9  and  O_10
REMARK    5  A    between atoms: O_10  and  C_11
REMARK    6  A    between atoms: C_12  and  O_13
REMARK    7  A    between atoms: C_14  and  C_15
REMARK    8  A    between atoms: C_17  and  C_18
REMARK    9  A    between atoms: C_19  and  O_20
REMARK   10  A    between atoms: O_20  and  C_21
REMARK   11  A    between atoms: C_21  and  O_23
REMARK   12  A    between atoms: C_24  and  O_25
REMARK   13  A    between atoms: O_25  and  C_26
REMARK   14  A    between atoms: C_30  and  C_31
REMARK   15  A    between atoms: C_32  and  O_33
REMARK                            x       y       z     vdW  Elec       q    Type
REMARK                         _______ _______ _______ _____ _____    ______ ____
ROOT
ATOM      1  C   UNL     1       1.543  -2.721  -2.916  0.00  0.00    +0.173 C 
ATOM      2  C   UNL     1       1.343  -1.419  -3.196  0.00  0.00    +0.047 C 
ATOM      3  C   UNL     1       2.450  -0.386  -3.122  0.00  0.00    +0.046 C 
ATOM      4  C   UNL     1       2.493   0.552  -1.888  0.00  0.00    -0.007 C 
ATOM      5  C   UNL     1       1.416   1.638  -1.953  0.00  0.00    +0.008 C 
ATOM      6  C   UNL     1       2.434  -0.216  -0.549  0.00  0.00    +0.037 C 
ATOM      7  C   UNL     1       2.772   0.609   0.722  0.00  0.00    +0.147 C 
ATOM      8  C   UNL     1       2.542  -0.238   2.022  0.00  0.00    +0.150 C 
ATOM      9  C   UNL     1       2.439   0.509   3.394  0.00  0.00    +0.040 C 
ATOM     10  C   UNL     1       3.241   1.802   3.515  0.00  0.00    +0.014 C 
ATOM     11  C   UNL     1       1.090   0.685   4.087  0.00  0.00    -0.019 C 
ATOM     12  C   UNL     1      -0.083   1.240   3.708  0.00  0.00    -0.033 C 
ATOM     13  C   UNL     1      -1.208   1.329   4.718  0.00  0.00    +0.042 C 
ATOM     14  C   UNL     1      -0.387   1.846   2.344  0.00  0.00    +0.236 C 
ATOM     15  C   UNL     1      -1.639   1.267   1.597  0.00  0.00    +0.186 C 
ATOM     16  C   UNL     1      -1.708  -0.247   1.547  0.00  0.00    +0.008 C 
ATOM     17  C   UNL     1      -2.028  -1.123   0.580  0.00  0.00    -0.001 C 
ATOM     18  C   UNL     1      -2.344  -0.868  -0.806  0.00  0.00    +0.008 C 
ATOM     19  C   UNL     1      -3.094  -1.679  -1.575  0.00  0.00    +0.011 C 
ATOM     20  C   UNL     1      -3.855  -2.898  -1.155  0.00  0.00    +0.049 C 
ATOM     21  C   UNL     1      -3.202  -1.333  -3.010  0.00  0.00    +0.216 C 
ATOM     22  N   UNL     1      -2.382  -1.438  -3.993  0.00  0.00    -0.209 NA
ATOM     23  C   UNL     1      -1.123  -1.915  -3.700  0.00  0.00    +0.118 C 
ATOM     24  C   UNL     1      -0.884  -3.210  -3.479  0.00  0.00    +0.086 C 
ATOM     25  C   UNL     1       0.444  -3.717  -3.117  0.00  0.00    +0.223 C 
ATOM     26  O   UNL     1       0.597  -4.925  -2.972  0.00  0.00    -0.284 OA
ATOM     27  C   UNL     1       0.022  -0.947  -3.701  0.00  0.00    +0.211 C 
ATOM     28  O   UNL     1      -0.124   0.202  -4.110  0.00  0.00    -0.285 OA
ENDROOT
BRANCH   7  29
ATOM     29  O   UNL     1       4.170   0.961   0.668  0.00  0.00    -0.377 OA
ATOM     30  C   UNL     1       4.416   2.325   0.344  0.00  0.00    +0.194 C 
ENDBRANCH   7  29
BRANCH   8  31
ATOM     31  O   UNL     1       1.438  -1.147   1.920  0.00  0.00    -0.389 OA
ATOM     32  H   UNL     1       1.725  -1.884   1.356  0.00  0.00    +0.210 HD
ENDBRANCH   8  31
BRANCH  21  33
ATOM     33  O   UNL     1      -4.423  -0.846  -3.277  0.00  0.00    -0.492 OA
ATOM     34  H   UNL     1      -4.432  -0.603  -4.218  0.00  0.00    +0.294 HD
ENDBRANCH  21  33
BRANCH   1  36
ATOM     35  C   UNL     1       2.815  -4.110  -1.463  0.00  0.00    +0.277 C 
ATOM     36  O   UNL     1       2.804  -3.136  -2.503  0.00  0.00    -0.491 OA
ENDBRANCH   1  36
BRANCH  15  37
ATOM     37  O   UNL     1      -1.665   1.815   0.269  0.00  0.00    -0.372 OA
ATOM     38  C   UNL     1      -2.811   2.618   0.027  0.00  0.00    +0.195 C 
ENDBRANCH  15  37
BRANCH  14  39
ATOM     39  O   UNL     1      -0.648   3.255   2.587  0.00  0.00    -0.439 OA
BRANCH  39  40
ATOM     40  C   UNL     1       0.012   4.174   1.870  0.00  0.00    +0.381 C 
ATOM     41  N   UNL     1       0.988   3.970   1.070  0.00  0.00    -0.233 NA
ATOM     42  H   UNL     1       1.301   4.840   0.645  0.00  0.00    +0.193 HD
BRANCH  40  43
ATOM     43  O   UNL     1      -0.477   5.396   2.101  0.00  0.00    -0.466 OA
ATOM     44  H   UNL     1      -0.001   6.066   1.596  0.00  0.00    +0.297 HD
ENDBRANCH  40  43
ENDBRANCH  39  40
ENDBRANCH  14  39
TORSDOF 8
