REMARK  Name = 
REMARK  14 active torsions:
REMARK  status: ('A' for Active; 'I' for Inactive)
REMARK    1  A    between atoms: C_1  and  O_2
REMARK    2  A    between atoms: O_2  and  C_3
REMARK    3  A    between atoms: C_6  and  C_7
REMARK    4  A    between atoms: C_9  and  O_10
REMARK    5  A    between atoms: O_10  and  C_11
REMARK    6  A    between atoms: C_12  and  O_13
REMARK    7  A    between atoms: C_14  and  C_15
REMARK    8  A    between atoms: C_17  and  C_18
REMARK    9  A    between atoms: C_19  and  O_20
REMARK   10  A    between atoms: O_20  and  C_21
REMARK   11  A    between atoms: C_21  and  O_23
REMARK   12  A    between atoms: C_24  and  O_25
REMARK   13  A    between atoms: O_25  and  C_26
REMARK   14  A    between atoms: C_30  and  C_31
REMARK                            x       y       z     vdW  Elec       q    Type
REMARK                         _______ _______ _______ _____ _____    ______ ____
ROOT
ATOM      1  C   UNL     1       0.650  -2.763   3.816  0.00  0.00    +0.173 C 
ATOM      2  C   UNL     1      -0.179  -1.703   3.813  0.00  0.00    +0.047 C 
ATOM      3  C   UNL     1      -1.640  -1.774   4.220  0.00  0.00    +0.046 C 
ATOM      4  C   UNL     1      -2.546  -2.744   3.417  0.00  0.00    -0.007 C 
ATOM      5  C   UNL     1      -4.009  -2.540   3.827  0.00  0.00    +0.008 C 
ATOM      6  C   UNL     1      -2.355  -2.711   1.881  0.00  0.00    +0.037 C 
ATOM      7  C   UNL     1      -2.513  -1.339   1.196  0.00  0.00    +0.147 C 
ATOM      8  C   UNL     1      -1.987  -1.346  -0.271  0.00  0.00    +0.150 C 
ATOM      9  C   UNL     1      -0.451  -1.594  -0.374  0.00  0.00    +0.040 C 
ATOM     10  C   UNL     1      -0.054  -2.916  -1.037  0.00  0.00    +0.014 C 
ATOM     11  C   UNL     1       0.335  -0.436  -0.971  0.00  0.00    -0.019 C 
ATOM     12  C   UNL     1       0.201   0.177  -2.166  0.00  0.00    -0.033 C 
ATOM     13  C   UNL     1      -0.807  -0.228  -3.215  0.00  0.00    +0.042 C 
ATOM     14  C   UNL     1       1.078   1.355  -2.617  0.00  0.00    +0.236 C 
ATOM     15  C   UNL     1       1.763   2.240  -1.515  0.00  0.00    +0.186 C 
ATOM     16  C   UNL     1       0.780   2.784  -0.498  0.00  0.00    +0.008 C 
ATOM     17  C   UNL     1       1.045   3.410   0.660  0.00  0.00    -0.001 C 
ATOM     18  C   UNL     1       2.351   3.739   1.179  0.00  0.00    +0.008 C 
ATOM     19  C   UNL     1       3.311   2.920   1.646  0.00  0.00    +0.012 C 
ATOM     20  C   UNL     1       4.652   3.445   2.075  0.00  0.00    +0.049 C 
ATOM     21  C   UNL     1       3.186   1.437   1.782  0.00  0.00    +0.244 C 
ATOM     22  O   UNL     1       4.089   0.707   1.392  0.00  0.00    -0.270 OA
ATOM     23  N   UNL     1       2.046   1.027   2.428  0.00  0.00    -0.279 N 
ATOM     24  C   UNL     1       1.709  -0.242   2.861  0.00  0.00    +0.085 C 
ATOM     25  C   UNL     1       2.508  -1.310   2.852  0.00  0.00    +0.081 C 
ATOM     26  C   UNL     1       2.076  -2.616   3.378  0.00  0.00    +0.222 C 
ATOM     27  O   UNL     1       2.888  -3.533   3.433  0.00  0.00    -0.284 OA
ATOM     28  C   UNL     1       0.321  -0.363   3.397  0.00  0.00    +0.207 C 
ATOM     29  O   UNL     1      -0.385   0.643   3.447  0.00  0.00    -0.286 OA
ATOM     30  H   UNL     1       1.335   1.733   2.619  0.00  0.00    +0.155 HD
ENDROOT
BRANCH   7  31
ATOM     31  O   UNL     1      -3.923  -1.042   1.165  0.00  0.00    -0.377 OA
ATOM     32  C   UNL     1      -4.197   0.354   1.223  0.00  0.00    +0.194 C 
ENDBRANCH   7  31
BRANCH   8  33
ATOM     33  O   UNL     1      -2.732  -2.313  -1.023  0.00  0.00    -0.389 OA
ATOM     34  H   UNL     1      -3.663  -2.193  -0.749  0.00  0.00    +0.210 HD
ENDBRANCH   8  33
BRANCH  15  35
ATOM     35  O   UNL     1       2.350   3.397  -2.142  0.00  0.00    -0.372 OA
ATOM     36  C   UNL     1       3.762   3.307  -2.266  0.00  0.00    +0.195 C 
ENDBRANCH  15  35
BRANCH   1  38
ATOM     37  C   UNL     1       0.573  -5.118   3.508  0.00  0.00    +0.277 C 
ATOM     38  O   UNL     1       0.174  -3.984   4.276  0.00  0.00    -0.491 OA
ENDBRANCH   1  38
BRANCH  14  39
ATOM     39  O   UNL     1       2.120   0.766  -3.437  0.00  0.00    -0.439 OA
BRANCH  39  40
ATOM     40  C   UNL     1       2.182   1.128  -4.725  0.00  0.00    +0.381 C 
ATOM     41  N   UNL     1       1.402   1.913  -5.361  0.00  0.00    -0.233 NA
ATOM     42  H   UNL     1       1.762   1.946  -6.321  0.00  0.00    +0.193 HD
BRANCH  40  43
ATOM     43  O   UNL     1       3.211   0.535  -5.331  0.00  0.00    -0.466 OA
ATOM     44  H   UNL     1       3.647  -0.033  -4.677  0.00  0.00    +0.297 HD
ENDBRANCH  40  43
ENDBRANCH  39  40
ENDBRANCH  14  39
TORSDOF 7
