REMARK  Name = 
REMARK  3 active torsions:
REMARK  status: ('A' for Active; 'I' for Inactive)
REMARK    1  A    between atoms: C_3  and  N_15
REMARK    2  A    between atoms: C_21  and  O_22
REMARK    3  A    between atoms: C_21  and  N_23
REMARK                            x       y       z     vdW  Elec       q    Type
REMARK                         _______ _______ _______ _____ _____    ______ ____
ROOT
ATOM      1  C   UNL     1       2.272  -0.548   3.360  0.00  0.00    +0.224 A 
ATOM      2  N   UNL     1       2.581  -0.368   2.071  0.00  0.00    -0.220 NA
ATOM      3  C   UNL     1       1.620  -0.537   1.130  0.00  0.00    +0.133 A 
ATOM      4  C   UNL     1       0.303  -0.852   1.554  0.00  0.00    +0.051 A 
ATOM      5  C   UNL     1      -0.977  -1.009   0.872  0.00  0.00    -0.025 A 
ATOM      6  C   UNL     1      -1.979  -1.391   1.754  0.00  0.00    -0.004 A 
ATOM      7  S   UNL     1      -1.428  -1.474   3.365  0.00  0.00    -0.073 S 
ATOM      8  C   UNL     1       0.149  -1.029   2.922  0.00  0.00    +0.114 A 
ATOM      9  N   UNL     1       1.092  -0.897   3.869  0.00  0.00    -0.228 NA
ATOM     10  C   UNL     1      -3.413  -1.696   1.440  0.00  0.00    +0.043 C 
ATOM     11  C   UNL     1      -4.133  -0.506   0.808  0.00  0.00    +0.005 C 
ATOM     12  C   UNL     1      -3.751  -0.252  -0.651  0.00  0.00    +0.001 C 
ATOM     13  C   UNL     1      -2.324   0.256  -0.867  0.00  0.00    +0.005 C 
ATOM     14  C   UNL     1      -1.232  -0.783  -0.594  0.00  0.00    +0.037 C 
ENDROOT
BRANCH   3  15
ATOM     15  N   UNL     1       1.990  -0.430  -0.209  0.00  0.00    -0.310 N 
ATOM     16  C   UNL     1       2.240  -1.723  -0.843  0.00  0.00    +0.107 C 
ATOM     17  C   UNL     1       2.950  -1.556  -2.185  0.00  0.00    +0.023 C 
ATOM     18  C   UNL     1       2.529  -0.265  -2.877  0.00  0.00    +0.039 C 
ATOM     19  C   UNL     1       2.833   0.939  -2.013  0.00  0.00    +0.004 C 
ATOM     20  C   UNL     1       2.897   0.671  -0.520  0.00  0.00    +0.142 C 
ATOM     21  C   UNL     1       3.044   2.167  -2.515  0.00  0.00    +0.175 C 
BRANCH  21  22
ATOM     22  N   UNL     1       2.987   2.525  -3.817  0.00  0.00    -0.330 N 
ATOM     23  H   UNL     1       3.457   3.361  -4.135  0.00  0.00    +0.145 HD
ATOM     24  H   UNL     1       2.754   1.827  -4.512  0.00  0.00    +0.145 HD
ENDBRANCH  21  22
BRANCH  21  25
ATOM     25  O   UNL     1       3.348   3.199  -1.673  0.00  0.00    -0.495 OA
ATOM     26  H   UNL     1       3.088   4.001  -2.152  0.00  0.00    +0.293 HD
ENDBRANCH  21  25
ENDBRANCH   3  15
TORSDOF 3
