REMARK  Name = 
REMARK  3 active torsions:
REMARK  status: ('A' for Active; 'I' for Inactive)
REMARK    1  A    between atoms: C_3  and  N_15
REMARK    2  A    between atoms: C_19  and  C_21
REMARK    3  A    between atoms: C_21  and  O_22
REMARK                            x       y       z     vdW  Elec       q    Type
REMARK                         _______ _______ _______ _____ _____    ______ ____
ROOT
ATOM      1  C   UNL     1      -0.719  -1.281  -4.143  0.00  0.00    +0.224 A 
ATOM      2  N   UNL     1      -1.153  -1.653  -2.932  0.00  0.00    -0.220 NA
ATOM      3  C   UNL     1      -0.683  -1.009  -1.835  0.00  0.00    +0.133 A 
ATOM      4  C   UNL     1       0.298   0.001  -2.011  0.00  0.00    +0.051 A 
ATOM      5  C   UNL     1       1.089   0.822  -1.103  0.00  0.00    -0.025 A 
ATOM      6  C   UNL     1       1.879   1.730  -1.791  0.00  0.00    -0.004 A 
ATOM      7  S   UNL     1       1.754   1.548  -3.481  0.00  0.00    -0.073 S 
ATOM      8  C   UNL     1       0.629   0.284  -3.329  0.00  0.00    +0.114 A 
ATOM      9  N   UNL     1       0.152  -0.317  -4.432  0.00  0.00    -0.228 NA
ATOM     10  C   UNL     1       2.780   2.778  -1.210  0.00  0.00    +0.043 C 
ATOM     11  C   UNL     1       2.024   3.732  -0.281  0.00  0.00    +0.005 C 
ATOM     12  C   UNL     1       1.676   3.138   1.087  0.00  0.00    +0.001 C 
ATOM     13  C   UNL     1       0.626   2.022   1.073  0.00  0.00    +0.005 C 
ATOM     14  C   UNL     1       1.099   0.734   0.398  0.00  0.00    +0.037 C 
ENDROOT
BRANCH   3  15
ATOM     15  N   UNL     1      -1.208  -1.355  -0.589  0.00  0.00    -0.314 N 
ATOM     16  C   UNL     1      -2.249  -0.435  -0.129  0.00  0.00    +0.106 C 
ATOM     17  C   UNL     1      -2.528  -0.670   1.353  0.00  0.00    +0.020 C 
ATOM     18  C   UNL     1      -2.838  -2.138   1.648  0.00  0.00    +0.016 C 
ATOM     19  C   UNL     1      -1.796  -3.100   1.060  0.00  0.00    +0.091 C 
ATOM     20  C   UNL     1      -1.490  -2.781  -0.407  0.00  0.00    +0.119 C 
BRANCH  19  21
ATOM     21  C   UNL     1      -0.523  -3.183   1.865  0.00  0.00    +0.184 C 
ATOM     22  N   UNL     1      -0.166  -2.376   2.797  0.00  0.00    -0.271 NA
ATOM     23  H   UNL     1       0.730  -2.635   3.207  0.00  0.00    +0.190 HD
BRANCH  21  24
ATOM     24  O   UNL     1       0.251  -4.232   1.553  0.00  0.00    -0.496 OA
ATOM     25  H   UNL     1       1.067  -4.246   2.073  0.00  0.00    +0.293 HD
ENDBRANCH  21  24
ENDBRANCH  19  21
ENDBRANCH   3  15
TORSDOF 3
