REMARK  Name = 
REMARK  3 active torsions:
REMARK  status: ('A' for Active; 'I' for Inactive)
REMARK    1  A    between atoms: C_3  and  N_15
REMARK    2  A    between atoms: C_19  and  C_21
REMARK    3  A    between atoms: C_21  and  O_22
REMARK                            x       y       z     vdW  Elec       q    Type
REMARK                         _______ _______ _______ _____ _____    ______ ____
ROOT
ATOM      1  C   UNL     1       2.834  -0.978   3.358  0.00  0.00    +0.224 A 
ATOM      2  N   UNL     1       2.655   0.098   2.580  0.00  0.00    -0.220 NA
ATOM      3  C   UNL     1       1.574   0.145   1.764  0.00  0.00    +0.133 A 
ATOM      4  C   UNL     1       0.692  -0.964   1.739  0.00  0.00    +0.051 A 
ATOM      5  C   UNL     1      -0.501  -1.285   0.958  0.00  0.00    -0.025 A 
ATOM      6  C   UNL     1      -1.023  -2.518   1.324  0.00  0.00    -0.004 A 
ATOM      7  S   UNL     1      -0.097  -3.282   2.539  0.00  0.00    -0.073 S 
ATOM      8  C   UNL     1       1.011  -1.998   2.605  0.00  0.00    +0.114 A 
ATOM      9  N   UNL     1       2.060  -2.059   3.441  0.00  0.00    -0.228 NA
ATOM     10  C   UNL     1      -2.244  -3.206   0.797  0.00  0.00    +0.043 C 
ATOM     11  C   UNL     1      -2.157  -3.496  -0.701  0.00  0.00    +0.005 C 
ATOM     12  C   UNL     1      -1.829  -2.306  -1.613  0.00  0.00    +0.001 C 
ATOM     13  C   UNL     1      -2.150  -0.934  -1.024  0.00  0.00    +0.005 C 
ATOM     14  C   UNL     1      -1.042  -0.379  -0.123  0.00  0.00    +0.037 C 
ENDROOT
BRANCH   3  15
ATOM     15  N   UNL     1       1.371   1.287   0.988  0.00  0.00    -0.314 N 
ATOM     16  C   UNL     1       0.543   2.290   1.656  0.00  0.00    +0.106 C 
ATOM     17  C   UNL     1       0.099   3.341   0.643  0.00  0.00    +0.020 C 
ATOM     18  C   UNL     1       1.288   3.943  -0.109  0.00  0.00    +0.016 C 
ATOM     19  C   UNL     1       2.224   2.879  -0.699  0.00  0.00    +0.091 C 
ATOM     20  C   UNL     1       2.575   1.796   0.326  0.00  0.00    +0.119 C 
BRANCH  19  21
ATOM     21  C   UNL     1       1.710   2.259  -1.975  0.00  0.00    +0.184 C 
ATOM     22  N   UNL     1       0.515   2.359  -2.434  0.00  0.00    -0.271 NA
ATOM     23  H   UNL     1       0.400   1.865  -3.318  0.00  0.00    +0.190 HD
BRANCH  21  24
ATOM     24  O   UNL     1       2.637   1.578  -2.662  0.00  0.00    -0.496 OA
ATOM     25  H   UNL     1       2.273   1.180  -3.465  0.00  0.00    +0.293 HD
ENDBRANCH  21  24
ENDBRANCH  19  21
ENDBRANCH   3  15
TORSDOF 3
