REMARK  Name = 
REMARK  3 active torsions:
REMARK  status: ('A' for Active; 'I' for Inactive)
REMARK    1  A    between atoms: C_3  and  N_15
REMARK    2  A    between atoms: C_19  and  C_21
REMARK    3  A    between atoms: C_21  and  O_22
REMARK                            x       y       z     vdW  Elec       q    Type
REMARK                         _______ _______ _______ _____ _____    ______ ____
ROOT
ATOM      1  C   UNL     1       1.794  -2.132  -3.574  0.00  0.00    +0.224 A 
ATOM      2  N   UNL     1       1.425  -0.909  -3.174  0.00  0.00    -0.220 NA
ATOM      3  C   UNL     1       0.854  -0.751  -1.954  0.00  0.00    +0.133 A 
ATOM      4  C   UNL     1       0.750  -1.887  -1.109  0.00  0.00    +0.051 A 
ATOM      5  C   UNL     1       0.342  -2.098   0.277  0.00  0.00    -0.025 A 
ATOM      6  C   UNL     1       0.367  -3.442   0.619  0.00  0.00    -0.004 A 
ATOM      7  S   UNL     1       0.941  -4.424  -0.650  0.00  0.00    -0.073 S 
ATOM      8  C   UNL     1       1.158  -3.087  -1.675  0.00  0.00    +0.114 A 
ATOM      9  N   UNL     1       1.674  -3.273  -2.901  0.00  0.00    -0.228 NA
ATOM     10  C   UNL     1      -0.020  -4.061   1.929  0.00  0.00    +0.043 C 
ATOM     11  C   UNL     1      -1.455  -3.712   2.329  0.00  0.00    +0.005 C 
ATOM     12  C   UNL     1      -1.635  -2.282   2.844  0.00  0.00    +0.001 C 
ATOM     13  C   UNL     1      -1.465  -1.181   1.792  0.00  0.00    +0.005 C 
ATOM     14  C   UNL     1      -0.035  -1.034   1.271  0.00  0.00    +0.037 C 
ENDROOT
BRANCH   3  15
ATOM     15  N   UNL     1       0.391   0.514  -1.610  0.00  0.00    -0.314 N 
ATOM     16  C   UNL     1      -1.057   0.681  -1.577  0.00  0.00    +0.106 C 
ATOM     17  C   UNL     1      -1.618   0.902  -2.980  0.00  0.00    +0.020 C 
ATOM     18  C   UNL     1      -0.642   1.553  -3.966  0.00  0.00    +0.016 C 
ATOM     19  C   UNL     1       0.508   2.337  -3.322  0.00  0.00    +0.091 C 
ATOM     20  C   UNL     1       1.146   1.673  -2.095  0.00  0.00    +0.119 C 
BRANCH  19  21
ATOM     21  C   UNL     1       0.103   3.748  -2.983  0.00  0.00    +0.184 C 
ATOM     22  N   UNL     1       0.823   4.774  -3.258  0.00  0.00    -0.271 NA
ATOM     23  H   UNL     1       0.394   5.645  -2.949  0.00  0.00    +0.190 HD
BRANCH  21  24
ATOM     24  O   UNL     1      -1.061   3.893  -2.345  0.00  0.00    -0.496 OA
ATOM     25  H   UNL     1      -1.260   4.823  -2.165  0.00  0.00    +0.293 HD
ENDBRANCH  21  24
ENDBRANCH  19  21
ENDBRANCH   3  15
TORSDOF 3
