REMARK  Name = 
REMARK  2 active torsions:
REMARK  status: ('A' for Active; 'I' for Inactive)
REMARK    1  A    between atoms: C_3  and  N_15
REMARK    2  A    between atoms: C_19  and  C_21
REMARK                            x       y       z     vdW  Elec       q    Type
REMARK                         _______ _______ _______ _____ _____    ______ ____
ROOT
ATOM      1  C   UNL     1       2.232  -1.172   2.546  0.00  0.00    +0.224 A 
ATOM      2  N   UNL     1       2.351  -0.541   1.372  0.00  0.00    -0.220 NA
ATOM      3  C   UNL     1       1.280  -0.457   0.545  0.00  0.00    +0.133 A 
ATOM      4  C   UNL     1       0.038  -0.975   1.003  0.00  0.00    +0.051 A 
ATOM      5  C   UNL     1      -1.331  -0.954   0.492  0.00  0.00    -0.025 A 
ATOM      6  C   UNL     1      -2.184  -1.699   1.293  0.00  0.00    -0.004 A 
ATOM      7  S   UNL     1      -1.403  -2.309   2.680  0.00  0.00    -0.073 S 
ATOM      8  C   UNL     1       0.084  -1.625   2.229  0.00  0.00    +0.114 A 
ATOM      9  N   UNL     1       1.147  -1.763   3.037  0.00  0.00    -0.228 NA
ATOM     10  C   UNL     1      -3.641  -1.980   1.078  0.00  0.00    +0.043 C 
ATOM     11  C   UNL     1      -4.477  -0.703   1.032  0.00  0.00    +0.005 C 
ATOM     12  C   UNL     1      -4.320   0.094  -0.264  0.00  0.00    +0.001 C 
ATOM     13  C   UNL     1      -2.954   0.756  -0.452  0.00  0.00    +0.005 C 
ATOM     14  C   UNL     1      -1.806  -0.219  -0.732  0.00  0.00    +0.037 C 
ENDROOT
BRANCH   3  15
ATOM     15  N   UNL     1       1.470   0.114  -0.711  0.00  0.00    -0.314 N 
ATOM     16  C   UNL     1       1.365  -0.799  -1.851  0.00  0.00    +0.106 C 
ATOM     17  C   UNL     1       2.728  -1.413  -2.172  0.00  0.00    +0.020 C 
ATOM     18  C   UNL     1       3.783  -0.327  -2.389  0.00  0.00    +0.016 C 
ATOM     19  C   UNL     1       3.858   0.613  -1.178  0.00  0.00    +0.092 C 
ATOM     20  C   UNL     1       2.478   1.176  -0.822  0.00  0.00    +0.119 C 
BRANCH  19  21
ATOM     21  C   UNL     1       4.843   1.748  -1.395  0.00  0.00    +0.215 C 
ATOM     22  O   UNL     1       5.788   1.963  -0.643  0.00  0.00    -0.276 OA
ATOM     23  N   UNL     1       4.640   2.556  -2.473  0.00  0.00    -0.329 N 
ATOM     24  H   UNL     1       5.299   3.312  -2.613  0.00  0.00    +0.145 HD
ATOM     25  H   UNL     1       3.893   2.439  -3.142  0.00  0.00    +0.145 HD
ENDBRANCH  19  21
ENDBRANCH   3  15
TORSDOF 2
