REMARK  Name = 
REMARK  3 active torsions:
REMARK  status: ('A' for Active; 'I' for Inactive)
REMARK    1  A    between atoms: C_3  and  N_15
REMARK    2  A    between atoms: C_21  and  O_22
REMARK    3  A    between atoms: C_21  and  N_23
REMARK                            x       y       z     vdW  Elec       q    Type
REMARK                         _______ _______ _______ _____ _____    ______ ____
ROOT
ATOM      1  C   UNL     1       0.723  -2.512  -2.743  0.00  0.00    +0.224 A 
ATOM      2  N   UNL     1       0.243  -2.448  -1.496  0.00  0.00    -0.220 NA
ATOM      3  C   UNL     1       0.157  -1.243  -0.879  0.00  0.00    +0.133 A 
ATOM      4  C   UNL     1       0.659  -0.101  -1.557  0.00  0.00    +0.051 A 
ATOM      5  C   UNL     1       0.851   1.300  -1.183  0.00  0.00    -0.025 A 
ATOM      6  C   UNL     1       1.326   2.050  -2.253  0.00  0.00    -0.004 A 
ATOM      7  S   UNL     1       1.642   1.081  -3.627  0.00  0.00    -0.073 S 
ATOM      8  C   UNL     1       1.115  -0.329  -2.846  0.00  0.00    +0.114 A 
ATOM      9  N   UNL     1       1.163  -1.505  -3.494  0.00  0.00    -0.228 NA
ATOM     10  C   UNL     1       1.623   3.524  -2.340  0.00  0.00    +0.043 C 
ATOM     11  C   UNL     1       0.707   4.366  -1.456  0.00  0.00    +0.005 C 
ATOM     12  C   UNL     1       1.093   4.360   0.023  0.00  0.00    +0.001 C 
ATOM     13  C   UNL     1       1.491   3.004   0.608  0.00  0.00    +0.005 C 
ATOM     14  C   UNL     1       0.573   1.853   0.196  0.00  0.00    +0.037 C 
ENDROOT
BRANCH   3  15
ATOM     15  N   UNL     1      -0.442  -1.186   0.377  0.00  0.00    -0.310 N 
ATOM     16  C   UNL     1      -1.826  -0.708   0.353  0.00  0.00    +0.107 C 
ATOM     17  C   UNL     1      -2.442  -0.858   1.742  0.00  0.00    +0.023 C 
ATOM     18  C   UNL     1      -2.466  -2.331   2.168  0.00  0.00    +0.039 C 
ATOM     19  C   UNL     1      -1.301  -3.114   1.598  0.00  0.00    +0.004 C 
ATOM     20  C   UNL     1      -0.091  -2.254   1.312  0.00  0.00    +0.142 C 
ATOM     21  C   UNL     1      -1.345  -4.435   1.334  0.00  0.00    +0.175 C 
BRANCH  21  22
ATOM     22  N   UNL     1      -0.387  -5.145   0.700  0.00  0.00    -0.330 N 
ATOM     23  H   UNL     1       0.291  -4.663   0.121  0.00  0.00    +0.145 HD
ATOM     24  H   UNL     1      -0.614  -6.108   0.486  0.00  0.00    +0.145 HD
ENDBRANCH  21  22
BRANCH  21  25
ATOM     25  O   UNL     1      -2.411  -5.225   1.673  0.00  0.00    -0.495 OA
ATOM     26  H   UNL     1      -2.981  -4.735   2.283  0.00  0.00    +0.293 HD
ENDBRANCH  21  25
ENDBRANCH   3  15
TORSDOF 3
