REMARK  Name = 
REMARK  14 active torsions:
REMARK  status: ('A' for Active; 'I' for Inactive)
REMARK    1  A    between atoms: C_1  and  O_2
REMARK    2  A    between atoms: O_2  and  C_3
REMARK    3  A    between atoms: C_6  and  C_7
REMARK    4  A    between atoms: C_9  and  O_10
REMARK    5  A    between atoms: O_10  and  C_11
REMARK    6  A    between atoms: C_12  and  O_13
REMARK    7  A    between atoms: C_14  and  C_15
REMARK    8  A    between atoms: C_17  and  C_18
REMARK    9  A    between atoms: C_19  and  O_20
REMARK   10  A    between atoms: O_20  and  C_21
REMARK   11  A    between atoms: C_24  and  O_25
REMARK   12  A    between atoms: O_25  and  C_26
REMARK   13  A    between atoms: C_30  and  C_31
REMARK   14  A    between atoms: C_32  and  O_33
REMARK                            x       y       z     vdW  Elec       q    Type
REMARK                         _______ _______ _______ _____ _____    ______ ____
ROOT
ATOM      1  C   UNL     1      -2.899   1.656   2.644  0.00  0.00    +0.173 C 
ATOM      2  C   UNL     1      -3.383   1.333   1.431  0.00  0.00    +0.047 C 
ATOM      3  C   UNL     1      -4.441   0.291   1.169  0.00  0.00    +0.046 C 
ATOM      4  C   UNL     1      -4.120  -0.832   0.141  0.00  0.00    -0.007 C 
ATOM      5  C   UNL     1      -4.351  -0.382  -1.307  0.00  0.00    +0.008 C 
ATOM      6  C   UNL     1      -2.712  -1.461   0.334  0.00  0.00    +0.037 C 
ATOM      7  C   UNL     1      -2.435  -2.643  -0.617  0.00  0.00    +0.147 C 
ATOM      8  C   UNL     1      -1.064  -3.340  -0.407  0.00  0.00    +0.150 C 
ATOM      9  C   UNL     1       0.236  -2.498  -0.627  0.00  0.00    +0.040 C 
ATOM     10  C   UNL     1       0.176  -1.800  -1.983  0.00  0.00    +0.014 C 
ATOM     11  C   UNL     1       0.626  -1.649   0.575  0.00  0.00    -0.019 C 
ATOM     12  C   UNL     1       1.426  -0.570   0.753  0.00  0.00    -0.033 C 
ATOM     13  C   UNL     1       1.701  -0.167   2.188  0.00  0.00    +0.042 C 
ATOM     14  C   UNL     1       2.191   0.223  -0.330  0.00  0.00    +0.236 C 
ATOM     15  C   UNL     1       2.456   1.739   0.023  0.00  0.00    +0.186 C 
ATOM     16  C   UNL     1       2.750   2.723  -1.090  0.00  0.00    +0.008 C 
ATOM     17  C   UNL     1       2.294   2.891  -2.339  0.00  0.00    -0.001 C 
ATOM     18  C   UNL     1       1.368   2.138  -3.142  0.00  0.00    +0.008 C 
ATOM     19  C   UNL     1       0.036   1.972  -3.059  0.00  0.00    +0.011 C 
ATOM     20  C   UNL     1      -0.695   1.210  -4.135  0.00  0.00    +0.049 C 
ATOM     21  C   UNL     1      -0.830   2.452  -1.952  0.00  0.00    +0.216 C 
ATOM     22  N   UNL     1      -0.566   2.292  -0.702  0.00  0.00    -0.209 NA
ATOM     23  C   UNL     1      -1.441   2.510   0.330  0.00  0.00    +0.118 C 
ATOM     24  C   UNL     1      -0.996   2.882   1.534  0.00  0.00    +0.086 C 
ATOM     25  C   UNL     1      -1.837   2.717   2.734  0.00  0.00    +0.223 C 
ATOM     26  O   UNL     1      -1.588   3.350   3.751  0.00  0.00    -0.284 OA
ATOM     27  C   UNL     1      -2.878   2.109   0.278  0.00  0.00    +0.211 C 
ATOM     28  O   UNL     1      -3.596   2.430  -0.662  0.00  0.00    -0.285 OA
ENDROOT
BRANCH   7  29
ATOM     29  O   UNL     1      -3.469  -3.622  -0.363  0.00  0.00    -0.377 OA
ATOM     30  C   UNL     1      -3.807  -4.396  -1.509  0.00  0.00    +0.194 C 
ENDBRANCH   7  29
BRANCH   8  31
ATOM     31  O   UNL     1      -1.048  -3.991   0.876  0.00  0.00    -0.389 OA
ATOM     32  H   UNL     1      -1.954  -4.341   0.996  0.00  0.00    +0.210 HD
ENDBRANCH   8  31
BRANCH  21  33
ATOM     33  O   UNL     1      -1.945   2.986  -2.481  0.00  0.00    -0.492 OA
ATOM     34  H   UNL     1      -2.651   3.124  -1.823  0.00  0.00    +0.294 HD
ENDBRANCH  21  33
BRANCH   1  36
ATOM     35  C   UNL     1      -2.475   0.851   4.841  0.00  0.00    +0.277 C 
ATOM     36  O   UNL     1      -3.403   1.033   3.776  0.00  0.00    -0.491 OA
ENDBRANCH   1  36
BRANCH  15  37
ATOM     37  O   UNL     1       3.582   1.815   0.939  0.00  0.00    -0.372 OA
ATOM     38  C   UNL     1       3.478   2.860   1.901  0.00  0.00    +0.195 C 
ENDBRANCH  15  37
BRANCH  14  39
ATOM     39  O   UNL     1       3.453  -0.469  -0.479  0.00  0.00    -0.440 OA
BRANCH  39  40
ATOM     40  C   UNL     1       3.967  -0.563  -1.716  0.00  0.00    +0.398 C 
ATOM     41  N   UNL     1       5.180  -1.156  -1.653  0.00  0.00    -0.295 N 
ATOM     42  O   UNL     1       3.460  -0.201  -2.764  0.00  0.00    -0.227 OA
ATOM     43  H   UNL     1       5.705  -1.300  -2.501  0.00  0.00    +0.148 HD
ATOM     44  H   UNL     1       5.551  -1.424  -0.755  0.00  0.00    +0.148 HD
ENDBRANCH  39  40
ENDBRANCH  14  39
TORSDOF 7
