REMARK  Name = 
REMARK  13 active torsions:
REMARK  status: ('A' for Active; 'I' for Inactive)
REMARK    1  A    between atoms: C_1  and  O_2
REMARK    2  A    between atoms: O_2  and  C_3
REMARK    3  A    between atoms: C_6  and  C_7
REMARK    4  A    between atoms: C_9  and  O_10
REMARK    5  A    between atoms: O_10  and  C_11
REMARK    6  A    between atoms: C_12  and  O_13
REMARK    7  A    between atoms: C_14  and  C_15
REMARK    8  A    between atoms: C_17  and  C_18
REMARK    9  A    between atoms: C_19  and  O_20
REMARK   10  A    between atoms: O_20  and  C_21
REMARK   11  A    between atoms: C_24  and  O_25
REMARK   12  A    between atoms: O_25  and  C_26
REMARK   13  A    between atoms: C_30  and  C_31
REMARK                            x       y       z     vdW  Elec       q    Type
REMARK                         _______ _______ _______ _____ _____    ______ ____
ROOT
ATOM      1  C   UNL     1      -4.326  -1.140   0.978  0.00  0.00    +0.173 C 
ATOM      2  C   UNL     1      -3.160  -1.644   0.533  0.00  0.00    +0.047 C 
ATOM      3  C   UNL     1      -3.058  -2.662  -0.585  0.00  0.00    +0.046 C 
ATOM      4  C   UNL     1      -2.779  -2.154  -2.025  0.00  0.00    -0.007 C 
ATOM      5  C   UNL     1      -3.814  -1.126  -2.488  0.00  0.00    +0.008 C 
ATOM      6  C   UNL     1      -1.333  -1.625  -2.198  0.00  0.00    +0.037 C 
ATOM      7  C   UNL     1      -0.869  -1.490  -3.658  0.00  0.00    +0.147 C 
ATOM      8  C   UNL     1       0.613  -1.019  -3.811  0.00  0.00    +0.150 C 
ATOM      9  C   UNL     1       0.964   0.461  -3.476  0.00  0.00    +0.040 C 
ATOM     10  C   UNL     1      -0.078   1.447  -4.013  0.00  0.00    +0.014 C 
ATOM     11  C   UNL     1       1.262   0.790  -2.018  0.00  0.00    -0.019 C 
ATOM     12  C   UNL     1       2.418   1.299  -1.530  0.00  0.00    -0.033 C 
ATOM     13  C   UNL     1       3.614   1.589  -2.406  0.00  0.00    +0.042 C 
ATOM     14  C   UNL     1       2.558   1.690  -0.051  0.00  0.00    +0.236 C 
ATOM     15  C   UNL     1       3.594   0.842   0.769  0.00  0.00    +0.186 C 
ATOM     16  C   UNL     1       3.850   1.399   2.158  0.00  0.00    +0.008 C 
ATOM     17  C   UNL     1       3.068   1.286   3.243  0.00  0.00    -0.001 C 
ATOM     18  C   UNL     1       1.793   0.619   3.233  0.00  0.00    +0.008 C 
ATOM     19  C   UNL     1       1.592  -0.684   3.506  0.00  0.00    +0.012 C 
ATOM     20  C   UNL     1       2.646  -1.657   3.944  0.00  0.00    +0.049 C 
ATOM     21  C   UNL     1       0.252  -1.291   3.226  0.00  0.00    +0.244 C 
ATOM     22  O   UNL     1       0.139  -2.495   3.018  0.00  0.00    -0.270 OA
ATOM     23  N   UNL     1      -0.818  -0.422   3.285  0.00  0.00    -0.279 N 
ATOM     24  C   UNL     1      -1.963  -0.571   2.529  0.00  0.00    +0.085 C 
ATOM     25  C   UNL     1      -3.107   0.012   2.890  0.00  0.00    +0.081 C 
ATOM     26  C   UNL     1      -4.337  -0.142   2.096  0.00  0.00    +0.222 C 
ATOM     27  O   UNL     1      -5.324   0.520   2.397  0.00  0.00    -0.284 OA
ATOM     28  C   UNL     1      -1.885  -1.256   1.196  0.00  0.00    +0.207 C 
ATOM     29  O   UNL     1      -0.808  -1.410   0.628  0.00  0.00    -0.286 OA
ATOM     30  H   UNL     1      -0.760   0.350   3.937  0.00  0.00    +0.155 HD
ENDROOT
BRANCH   7  31
ATOM     31  O   UNL     1      -1.037  -2.795  -4.251  0.00  0.00    -0.377 OA
ATOM     32  C   UNL     1      -1.210  -2.772  -5.660  0.00  0.00    +0.194 C 
ENDBRANCH   7  31
BRANCH   8  33
ATOM     33  O   UNL     1       1.536  -1.899  -3.155  0.00  0.00    -0.389 OA
ATOM     34  H   UNL     1       1.359  -1.856  -2.199  0.00  0.00    +0.210 HD
ENDBRANCH   8  33
BRANCH   1  36
ATOM     35  C   UNL     1      -6.617  -1.718   1.210  0.00  0.00    +0.277 C 
ATOM     36  O   UNL     1      -5.507  -1.504   0.342  0.00  0.00    -0.491 OA
ENDBRANCH   1  36
BRANCH  15  37
ATOM     37  O   UNL     1       4.879   0.828   0.118  0.00  0.00    -0.372 OA
ATOM     38  C   UNL     1       5.529  -0.432   0.228  0.00  0.00    +0.195 C 
ENDBRANCH  15  37
BRANCH  14  39
ATOM     39  O   UNL     1       2.911   3.094  -0.030  0.00  0.00    -0.440 OA
BRANCH  39  40
ATOM     40  C   UNL     1       2.166   3.896   0.755  0.00  0.00    +0.398 C 
ATOM     41  N   UNL     1       2.630   5.163   0.675  0.00  0.00    -0.295 N 
ATOM     42  O   UNL     1       1.212   3.577   1.448  0.00  0.00    -0.227 OA
ATOM     43  H   UNL     1       3.421   5.365   0.084  0.00  0.00    +0.148 HD
ATOM     44  H   UNL     1       2.175   5.891   1.203  0.00  0.00    +0.148 HD
ENDBRANCH  39  40
ENDBRANCH  14  39
TORSDOF 6
