REMARK  Name = 
REMARK  13 active torsions:
REMARK  status: ('A' for Active; 'I' for Inactive)
REMARK    1  A    between atoms: C_1  and  O_2
REMARK    2  A    between atoms: O_2  and  C_3
REMARK    3  A    between atoms: C_6  and  C_7
REMARK    4  A    between atoms: C_9  and  O_10
REMARK    5  A    between atoms: O_10  and  C_11
REMARK    6  A    between atoms: C_12  and  O_13
REMARK    7  A    between atoms: C_14  and  C_15
REMARK    8  A    between atoms: C_17  and  C_18
REMARK    9  A    between atoms: C_19  and  O_20
REMARK   10  A    between atoms: O_20  and  C_21
REMARK   11  A    between atoms: C_24  and  O_25
REMARK   12  A    between atoms: O_25  and  C_26
REMARK   13  A    between atoms: C_30  and  C_31
REMARK                            x       y       z     vdW  Elec       q    Type
REMARK                         _______ _______ _______ _____ _____    ______ ____
ROOT
ATOM      1  C   UNL     1      -2.202  -2.413   3.411  0.00  0.00    +0.169 C 
ATOM      2  C   UNL     1      -1.873  -1.543   2.440  0.00  0.00    +0.046 C 
ATOM      3  C   UNL     1      -2.826  -0.576   1.775  0.00  0.00    +0.046 C 
ATOM      4  C   UNL     1      -3.058  -0.845   0.268  0.00  0.00    -0.007 C 
ATOM      5  C   UNL     1      -4.260  -1.775   0.074  0.00  0.00    +0.008 C 
ATOM      6  C   UNL     1      -3.257   0.463  -0.534  0.00  0.00    +0.037 C 
ATOM      7  C   UNL     1      -2.034   1.411  -0.463  0.00  0.00    +0.147 C 
ATOM      8  C   UNL     1      -1.444   1.837  -1.833  0.00  0.00    +0.150 C 
ATOM      9  C   UNL     1      -0.520   0.774  -2.499  0.00  0.00    +0.040 C 
ATOM     10  C   UNL     1      -1.267  -0.352  -3.212  0.00  0.00    +0.014 C 
ATOM     11  C   UNL     1       0.365   1.477  -3.509  0.00  0.00    -0.019 C 
ATOM     12  C   UNL     1       1.706   1.580  -3.653  0.00  0.00    -0.033 C 
ATOM     13  C   UNL     1       2.179   2.543  -4.736  0.00  0.00    +0.042 C 
ATOM     14  C   UNL     1       2.876   0.937  -2.876  0.00  0.00    +0.236 C 
ATOM     15  C   UNL     1       2.669  -0.370  -2.027  0.00  0.00    +0.186 C 
ATOM     16  C   UNL     1       3.969  -0.836  -1.388  0.00  0.00    +0.008 C 
ATOM     17  C   UNL     1       4.251  -1.063  -0.094  0.00  0.00    -0.001 C 
ATOM     18  C   UNL     1       3.342  -0.963   1.022  0.00  0.00    +0.008 C 
ATOM     19  C   UNL     1       2.763   0.153   1.504  0.00  0.00    +0.013 C 
ATOM     20  C   UNL     1       2.995   1.546   0.994  0.00  0.00    +0.049 C 
ATOM     21  C   UNL     1       1.747   0.065   2.610  0.00  0.00    +0.263 C 
ATOM     22  O   UNL     1       1.035   1.017   2.907  0.00  0.00    -0.268 OA
ATOM     23  N   UNL     1       1.661  -1.153   3.244  0.00  0.00    -0.177 NA
ATOM     24  C   UNL     1       0.577  -1.833   3.016  0.00  0.00    +0.089 C 
ATOM     25  C   UNL     1       0.294  -3.111   3.724  0.00  0.00    +0.139 C 
ATOM     26  C   UNL     1      -1.168  -3.347   4.001  0.00  0.00    +0.203 C 
ATOM     27  O   UNL     1      -1.509  -4.311   4.685  0.00  0.00    -0.288 OA
ATOM     28  C   UNL     1      -0.463  -1.447   2.005  0.00  0.00    +0.205 C 
ATOM     29  O   UNL     1      -0.104  -1.093   0.893  0.00  0.00    -0.286 OA
ENDROOT
BRANCH   7  30
ATOM     30  O   UNL     1      -2.523   2.607   0.195  0.00  0.00    -0.377 OA
ATOM     31  C   UNL     1      -1.535   3.240   1.003  0.00  0.00    +0.194 C 
ENDBRANCH   7  30
BRANCH   8  32
ATOM     32  O   UNL     1      -2.495   2.256  -2.713  0.00  0.00    -0.389 OA
ATOM     33  H   UNL     1      -3.049   2.862  -2.184  0.00  0.00    +0.210 HD
ENDBRANCH   8  32
BRANCH   1  35
ATOM     34  C   UNL     1      -3.742  -2.634   5.205  0.00  0.00    +0.277 C 
ATOM     35  O   UNL     1      -3.533  -2.503   3.800  0.00  0.00    -0.491 OA
ENDBRANCH   1  35
BRANCH  15  36
ATOM     36  O   UNL     1       2.211  -1.428  -2.886  0.00  0.00    -0.372 OA
ATOM     37  C   UNL     1       1.568  -2.483  -2.182  0.00  0.00    +0.195 C 
ENDBRANCH  15  36
BRANCH  14  38
ATOM     38  O   UNL     1       3.899   0.643  -3.875  0.00  0.00    -0.440 OA
BRANCH  38  39
ATOM     39  C   UNL     1       5.116   1.190  -3.688  0.00  0.00    +0.398 C 
ATOM     40  N   UNL     1       5.936   0.825  -4.697  0.00  0.00    -0.295 N 
ATOM     41  O   UNL     1       5.466   1.904  -2.764  0.00  0.00    -0.227 OA
ATOM     42  H   UNL     1       6.888   1.157  -4.706  0.00  0.00    +0.148 HD
ATOM     43  H   UNL     1       5.585   0.231  -5.433  0.00  0.00    +0.148 HD
ENDBRANCH  38  39
ENDBRANCH  14  38
TORSDOF 6
