REMARK  Name = 
REMARK  14 active torsions:
REMARK  status: ('A' for Active; 'I' for Inactive)
REMARK    1  A    between atoms: C_1  and  O_2
REMARK    2  A    between atoms: O_2  and  C_3
REMARK    3  A    between atoms: C_6  and  C_7
REMARK    4  A    between atoms: C_9  and  O_10
REMARK    5  A    between atoms: O_10  and  C_11
REMARK    6  A    between atoms: C_12  and  O_13
REMARK    7  A    between atoms: C_14  and  C_15
REMARK    8  A    between atoms: C_17  and  C_18
REMARK    9  A    between atoms: C_19  and  O_20
REMARK   10  A    between atoms: O_20  and  C_21
REMARK   11  A    between atoms: C_24  and  O_25
REMARK   12  A    between atoms: O_25  and  C_26
REMARK   13  A    between atoms: C_30  and  C_31
REMARK   14  A    between atoms: C_37  and  O_38
REMARK                            x       y       z     vdW  Elec       q    Type
REMARK                         _______ _______ _______ _____ _____    ______ ____
ROOT
ATOM      1  C   UNL     1      -2.095   0.931  -3.450  0.00  0.00    +0.172 C 
ATOM      2  C   UNL     1      -2.091   0.251  -2.154  0.00  0.00    +0.065 C 
ATOM      3  C   UNL     1      -2.419  -1.058  -2.044  0.00  0.00    -0.008 C 
ATOM      4  C   UNL     1      -2.369  -1.984  -0.841  0.00  0.00    +0.012 C 
ATOM      5  C   UNL     1      -3.746  -2.018  -0.173  0.00  0.00    +0.012 C 
ATOM      6  C   UNL     1      -1.956  -3.408  -1.258  0.00  0.00    +0.041 C 
ATOM      7  C   UNL     1      -0.537  -3.539  -1.852  0.00  0.00    +0.147 C 
ATOM      8  C   UNL     1       0.639  -3.628  -0.825  0.00  0.00    +0.150 C 
ATOM      9  C   UNL     1       1.530  -2.367  -0.571  0.00  0.00    +0.040 C 
ATOM     10  C   UNL     1       1.670  -1.440  -1.781  0.00  0.00    +0.014 C 
ATOM     11  C   UNL     1       1.195  -1.553   0.665  0.00  0.00    -0.019 C 
ATOM     12  C   UNL     1       1.869  -1.504   1.837  0.00  0.00    -0.033 C 
ATOM     13  C   UNL     1       3.082  -2.345   2.159  0.00  0.00    +0.042 C 
ATOM     14  C   UNL     1       1.448  -0.601   3.008  0.00  0.00    +0.236 C 
ATOM     15  C   UNL     1       0.921   0.846   2.683  0.00  0.00    +0.186 C 
ATOM     16  C   UNL     1       1.821   1.666   1.763  0.00  0.00    +0.008 C 
ATOM     17  C   UNL     1       1.854   2.997   1.564  0.00  0.00    -0.001 C 
ATOM     18  C   UNL     1       0.993   3.985   2.175  0.00  0.00    +0.008 C 
ATOM     19  C   UNL     1      -0.338   4.127   2.023  0.00  0.00    +0.012 C 
ATOM     20  C   UNL     1      -1.132   5.121   2.816  0.00  0.00    +0.049 C 
ATOM     21  C   UNL     1      -1.161   3.290   1.093  0.00  0.00    +0.244 C 
ATOM     22  O   UNL     1      -2.253   2.861   1.443  0.00  0.00    -0.270 OA
ATOM     23  N   UNL     1      -0.666   3.266  -0.195  0.00  0.00    -0.279 N 
ATOM     24  C   UNL     1      -1.114   2.459  -1.221  0.00  0.00    +0.085 C 
ATOM     25  C   UNL     1      -1.006   2.883  -2.491  0.00  0.00    +0.076 C 
ATOM     26  C   UNL     1      -1.521   2.133  -3.601  0.00  0.00    +0.161 C 
ATOM     27  C   UNL     1      -1.634   1.059  -0.951  0.00  0.00    +0.211 C 
ATOM     28  O   UNL     1      -1.587   0.569   0.171  0.00  0.00    -0.285 OA
ATOM     29  H   UNL     1       0.012   3.982  -0.421  0.00  0.00    +0.155 HD
ENDROOT
BRANCH   7  30
ATOM     30  O   UNL     1      -0.584  -4.794  -2.589  0.00  0.00    -0.377 OA
ATOM     31  C   UNL     1       0.239  -4.792  -3.749  0.00  0.00    +0.194 C 
ENDBRANCH   7  30
BRANCH   8  32
ATOM     32  O   UNL     1       0.205  -4.223   0.407  0.00  0.00    -0.389 OA
ATOM     33  H   UNL     1       0.895  -4.076   1.075  0.00  0.00    +0.210 HD
ENDBRANCH   8  32
BRANCH  26  34
ATOM     34  O   UNL     1      -1.406   2.759  -4.820  0.00  0.00    -0.503 OA
ATOM     35  H   UNL     1      -1.727   2.120  -5.486  0.00  0.00    +0.292 HD
ENDBRANCH  26  34
BRANCH   1  37
ATOM     36  C   UNL     1      -4.013   0.478  -4.666  0.00  0.00    +0.277 C 
ATOM     37  O   UNL     1      -2.603   0.257  -4.551  0.00  0.00    -0.491 OA
ENDBRANCH   1  37
BRANCH  15  38
ATOM     38  O   UNL     1       0.596   1.592   3.877  0.00  0.00    -0.372 OA
ATOM     39  C   UNL     1       1.639   1.748   4.828  0.00  0.00    +0.195 C 
ENDBRANCH  15  38
BRANCH  14  40
ATOM     40  O   UNL     1       0.393  -1.314   3.695  0.00  0.00    -0.440 OA
BRANCH  40  41
ATOM     41  C   UNL     1       0.681  -1.835   4.900  0.00  0.00    +0.398 C 
ATOM     42  N   UNL     1      -0.422  -2.418   5.416  0.00  0.00    -0.295 N 
ATOM     43  O   UNL     1       1.759  -1.813   5.472  0.00  0.00    -0.227 OA
ATOM     44  H   UNL     1      -1.285  -2.390   4.893  0.00  0.00    +0.148 HD
ATOM     45  H   UNL     1      -0.379  -2.856   6.322  0.00  0.00    +0.148 HD
ENDBRANCH  40  41
ENDBRANCH  14  40
TORSDOF 7
