REMARK  Name = 
REMARK  15 active torsions:
REMARK  status: ('A' for Active; 'I' for Inactive)
REMARK    1  A    between atoms: C_1  and  O_2
REMARK    2  A    between atoms: O_2  and  C_3
REMARK    3  A    between atoms: C_6  and  C_7
REMARK    4  A    between atoms: C_9  and  O_10
REMARK    5  A    between atoms: O_10  and  C_11
REMARK    6  A    between atoms: C_12  and  O_13
REMARK    7  A    between atoms: C_14  and  C_15
REMARK    8  A    between atoms: C_17  and  C_18
REMARK    9  A    between atoms: C_19  and  O_20
REMARK   10  A    between atoms: O_20  and  C_21
REMARK   11  A    between atoms: C_24  and  O_25
REMARK   12  A    between atoms: O_25  and  C_26
REMARK   13  A    between atoms: C_30  and  C_31
REMARK   14  A    between atoms: C_32  and  O_33
REMARK   15  A    between atoms: C_37  and  O_38
REMARK                            x       y       z     vdW  Elec       q    Type
REMARK                         _______ _______ _______ _____ _____    ______ ____
ROOT
ATOM      1  C   UNL     1      -2.099   2.636   2.662  0.00  0.00    +0.172 C 
ATOM      2  C   UNL     1      -1.726   1.314   2.143  0.00  0.00    +0.065 C 
ATOM      3  C   UNL     1      -2.656   0.459   1.659  0.00  0.00    -0.008 C 
ATOM      4  C   UNL     1      -2.526  -0.976   1.165  0.00  0.00    +0.012 C 
ATOM      5  C   UNL     1      -3.902  -1.647   1.305  0.00  0.00    +0.012 C 
ATOM      6  C   UNL     1      -1.978  -1.023  -0.279  0.00  0.00    +0.041 C 
ATOM      7  C   UNL     1      -2.108  -2.376  -1.012  0.00  0.00    +0.147 C 
ATOM      8  C   UNL     1      -1.317  -2.371  -2.360  0.00  0.00    +0.150 C 
ATOM      9  C   UNL     1       0.129  -2.949  -2.329  0.00  0.00    +0.040 C 
ATOM     10  C   UNL     1       0.733  -3.008  -3.741  0.00  0.00    +0.014 C 
ATOM     11  C   UNL     1       1.030  -2.356  -1.264  0.00  0.00    -0.019 C 
ATOM     12  C   UNL     1       1.952  -1.369  -1.264  0.00  0.00    -0.033 C 
ATOM     13  C   UNL     1       2.747  -1.135   0.001  0.00  0.00    +0.042 C 
ATOM     14  C   UNL     1       2.296  -0.440  -2.424  0.00  0.00    +0.236 C 
ATOM     15  C   UNL     1       2.211   1.093  -2.095  0.00  0.00    +0.186 C 
ATOM     16  C   UNL     1       0.862   1.502  -1.551  0.00  0.00    +0.008 C 
ATOM     17  C   UNL     1       0.556   2.585  -0.821  0.00  0.00    -0.001 C 
ATOM     18  C   UNL     1       1.457   3.641  -0.435  0.00  0.00    +0.008 C 
ATOM     19  C   UNL     1       2.421   3.640   0.502  0.00  0.00    +0.011 C 
ATOM     20  C   UNL     1       3.289   4.847   0.729  0.00  0.00    +0.049 C 
ATOM     21  C   UNL     1       2.716   2.501   1.408  0.00  0.00    +0.216 C 
ATOM     22  N   UNL     1       2.056   1.828   2.276  0.00  0.00    -0.209 NA
ATOM     23  C   UNL     1       0.716   2.087   2.445  0.00  0.00    +0.118 C 
ATOM     24  C   UNL     1       0.239   3.259   2.899  0.00  0.00    +0.081 C 
ATOM     25  C   UNL     1      -1.168   3.537   3.023  0.00  0.00    +0.161 C 
ATOM     26  C   UNL     1      -0.257   0.953   2.174  0.00  0.00    +0.215 C 
ATOM     27  O   UNL     1       0.155  -0.189   1.990  0.00  0.00    -0.285 OA
ENDROOT
BRANCH   7  28
ATOM     28  O   UNL     1      -1.713  -3.440  -0.138  0.00  0.00    -0.377 OA
ATOM     29  C   UNL     1      -2.269  -4.701  -0.495  0.00  0.00    +0.194 C 
ENDBRANCH   7  28
BRANCH   8  30
ATOM     30  O   UNL     1      -2.075  -3.147  -3.315  0.00  0.00    -0.389 OA
ATOM     31  H   UNL     1      -2.873  -2.636  -3.534  0.00  0.00    +0.210 HD
ENDBRANCH   8  30
BRANCH  25  32
ATOM     32  O   UNL     1      -1.512   4.790   3.484  0.00  0.00    -0.503 OA
ATOM     33  H   UNL     1      -0.713   5.314   3.652  0.00  0.00    +0.292 HD
ENDBRANCH  25  32
BRANCH   1  35
ATOM     34  C   UNL     1      -3.950   2.878   4.049  0.00  0.00    +0.277 C 
ATOM     35  O   UNL     1      -3.455   2.916   2.710  0.00  0.00    -0.491 OA
ENDBRANCH   1  35
BRANCH  15  36
ATOM     36  O   UNL     1       2.368   1.841  -3.315  0.00  0.00    -0.372 OA
ATOM     37  C   UNL     1       3.601   2.542  -3.377  0.00  0.00    +0.195 C 
ENDBRANCH  15  36
BRANCH  21  38
ATOM     38  O   UNL     1       4.011   2.163   1.272  0.00  0.00    -0.492 OA
ATOM     39  H   UNL     1       4.162   1.408   1.868  0.00  0.00    +0.294 HD
ENDBRANCH  21  38
BRANCH  14  40
ATOM     40  O   UNL     1       3.657  -0.763  -2.799  0.00  0.00    -0.440 OA
BRANCH  40  41
ATOM     41  C   UNL     1       3.903  -0.912  -4.115  0.00  0.00    +0.398 C 
ATOM     42  N   UNL     1       5.207  -1.221  -4.297  0.00  0.00    -0.295 N 
ATOM     43  O   UNL     1       3.116  -0.800  -5.039  0.00  0.00    -0.227 OA
ATOM     44  H   UNL     1       5.543  -1.379  -5.234  0.00  0.00    +0.148 HD
ATOM     45  H   UNL     1       5.813  -1.330  -3.500  0.00  0.00    +0.148 HD
ENDBRANCH  40  41
ENDBRANCH  14  40
TORSDOF 8
