REMARK  Name = 
REMARK  13 active torsions:
REMARK  status: ('A' for Active; 'I' for Inactive)
REMARK    1  A    between atoms: C_1  and  O_2
REMARK    2  A    between atoms: O_2  and  C_3
REMARK    3  A    between atoms: C_6  and  C_7
REMARK    4  A    between atoms: C_9  and  O_10
REMARK    5  A    between atoms: O_10  and  C_11
REMARK    6  A    between atoms: C_12  and  O_13
REMARK    7  A    between atoms: C_14  and  C_15
REMARK    8  A    between atoms: C_17  and  C_18
REMARK    9  A    between atoms: C_19  and  O_20
REMARK   10  A    between atoms: O_20  and  C_21
REMARK   11  A    between atoms: C_24  and  O_25
REMARK   12  A    between atoms: O_25  and  C_26
REMARK   13  A    between atoms: C_30  and  C_31
REMARK                            x       y       z     vdW  Elec       q    Type
REMARK                         _______ _______ _______ _____ _____    ______ ____
ROOT
ATOM      1  C   UNL     1      -0.148   4.660   1.545  0.00  0.00    +0.173 C 
ATOM      2  C   UNL     1      -0.290   3.689   0.625  0.00  0.00    +0.047 C 
ATOM      3  C   UNL     1      -1.252   3.792  -0.541  0.00  0.00    +0.046 C 
ATOM      4  C   UNL     1      -2.745   3.657  -0.153  0.00  0.00    -0.007 C 
ATOM      5  C   UNL     1      -3.624   4.059  -1.339  0.00  0.00    +0.008 C 
ATOM      6  C   UNL     1      -3.119   2.284   0.467  0.00  0.00    +0.037 C 
ATOM      7  C   UNL     1      -3.111   1.054  -0.463  0.00  0.00    +0.147 C 
ATOM      8  C   UNL     1      -3.379  -0.290   0.284  0.00  0.00    +0.150 C 
ATOM      9  C   UNL     1      -2.266  -0.756   1.259  0.00  0.00    +0.040 C 
ATOM     10  C   UNL     1      -2.464  -0.328   2.719  0.00  0.00    +0.014 C 
ATOM     11  C   UNL     1      -2.195  -2.277   1.250  0.00  0.00    -0.019 C 
ATOM     12  C   UNL     1      -1.263  -3.069   0.677  0.00  0.00    -0.033 C 
ATOM     13  C   UNL     1      -1.409  -4.569   0.790  0.00  0.00    +0.042 C 
ATOM     14  C   UNL     1      -0.066  -2.568  -0.142  0.00  0.00    +0.236 C 
ATOM     15  C   UNL     1       1.320  -2.941   0.483  0.00  0.00    +0.186 C 
ATOM     16  C   UNL     1       1.553  -2.314   1.851  0.00  0.00    +0.008 C 
ATOM     17  C   UNL     1       2.605  -1.645   2.357  0.00  0.00    -0.001 C 
ATOM     18  C   UNL     1       3.833  -1.324   1.669  0.00  0.00    +0.008 C 
ATOM     19  C   UNL     1       4.039  -0.308   0.809  0.00  0.00    +0.012 C 
ATOM     20  C   UNL     1       5.311  -0.161   0.030  0.00  0.00    +0.049 C 
ATOM     21  C   UNL     1       3.019   0.748   0.521  0.00  0.00    +0.244 C 
ATOM     22  O   UNL     1       2.804   1.120  -0.626  0.00  0.00    -0.270 OA
ATOM     23  N   UNL     1       2.579   1.389   1.664  0.00  0.00    -0.279 N 
ATOM     24  C   UNL     1       1.632   2.390   1.704  0.00  0.00    +0.085 C 
ATOM     25  C   UNL     1       1.677   3.304   2.677  0.00  0.00    +0.081 C 
ATOM     26  C   UNL     1       0.751   4.446   2.722  0.00  0.00    +0.222 C 
ATOM     27  O   UNL     1       0.775   5.189   3.697  0.00  0.00    -0.284 OA
ATOM     28  C   UNL     1       0.494   2.428   0.729  0.00  0.00    +0.207 C 
ATOM     29  O   UNL     1       0.145   1.432   0.105  0.00  0.00    -0.286 OA
ATOM     30  H   UNL     1       3.101   1.191   2.507  0.00  0.00    +0.155 HD
ENDROOT
BRANCH   7  31
ATOM     31  O   UNL     1      -4.201   1.240  -1.398  0.00  0.00    -0.377 OA
ATOM     32  C   UNL     1      -3.972   0.597  -2.648  0.00  0.00    +0.194 C 
ENDBRANCH   7  31
BRANCH   8  33
ATOM     33  O   UNL     1      -4.652  -0.222   0.951  0.00  0.00    -0.389 OA
ATOM     34  H   UNL     1      -5.243   0.214   0.305  0.00  0.00    +0.210 HD
ENDBRANCH   8  33
BRANCH   1  36
ATOM     35  C   UNL     1      -0.228   7.023   1.777  0.00  0.00    +0.277 C 
ATOM     36  O   UNL     1      -0.906   5.819   1.429  0.00  0.00    -0.491 OA
ENDBRANCH   1  36
BRANCH  15  37
ATOM     37  O   UNL     1       2.365  -2.561  -0.424  0.00  0.00    -0.372 OA
ATOM     38  C   UNL     1       2.993  -3.666  -1.054  0.00  0.00    +0.195 C 
ENDBRANCH  15  37
BRANCH  14  39
ATOM     39  O   UNL     1      -0.145  -3.209  -1.444  0.00  0.00    -0.440 OA
BRANCH  39  40
ATOM     40  C   UNL     1      -0.840  -2.547  -2.390  0.00  0.00    +0.398 C 
ATOM     41  N   UNL     1      -0.768  -3.224  -3.559  0.00  0.00    -0.295 N 
ATOM     42  O   UNL     1      -1.464  -1.507  -2.265  0.00  0.00    -0.227 OA
ATOM     43  H   UNL     1      -1.232  -2.844  -4.370  0.00  0.00    +0.148 HD
ATOM     44  H   UNL     1      -0.233  -4.074  -3.617  0.00  0.00    +0.148 HD
ENDBRANCH  39  40
ENDBRANCH  14  39
TORSDOF 6
