REMARK  Name = 
REMARK  14 active torsions:
REMARK  status: ('A' for Active; 'I' for Inactive)
REMARK    1  A    between atoms: C_1  and  O_2
REMARK    2  A    between atoms: O_2  and  C_3
REMARK    3  A    between atoms: C_6  and  C_7
REMARK    4  A    between atoms: C_9  and  O_10
REMARK    5  A    between atoms: O_10  and  C_11
REMARK    6  A    between atoms: C_12  and  O_13
REMARK    7  A    between atoms: C_14  and  C_15
REMARK    8  A    between atoms: C_17  and  C_18
REMARK    9  A    between atoms: C_19  and  O_20
REMARK   10  A    between atoms: O_20  and  C_21
REMARK   11  A    between atoms: C_24  and  O_25
REMARK   12  A    between atoms: O_25  and  C_26
REMARK   13  A    between atoms: C_30  and  C_31
REMARK   14  A    between atoms: C_37  and  O_38
REMARK                            x       y       z     vdW  Elec       q    Type
REMARK                         _______ _______ _______ _____ _____    ______ ____
ROOT
ATOM      1  C   UNL     1      -4.446   0.020   1.701  0.00  0.00    +0.172 C 
ATOM      2  C   UNL     1      -3.426  -1.014   1.513  0.00  0.00    +0.065 C 
ATOM      3  C   UNL     1      -3.580  -2.069   0.679  0.00  0.00    -0.008 C 
ATOM      4  C   UNL     1      -2.586  -3.155   0.309  0.00  0.00    +0.012 C 
ATOM      5  C   UNL     1      -3.266  -4.524   0.444  0.00  0.00    +0.012 C 
ATOM      6  C   UNL     1      -2.023  -2.992  -1.125  0.00  0.00    +0.041 C 
ATOM      7  C   UNL     1      -1.394  -1.623  -1.470  0.00  0.00    +0.147 C 
ATOM      8  C   UNL     1      -0.184  -1.236  -0.573  0.00  0.00    +0.150 C 
ATOM      9  C   UNL     1       1.279  -1.493  -1.019  0.00  0.00    +0.040 C 
ATOM     10  C   UNL     1       1.555  -2.992  -1.178  0.00  0.00    +0.014 C 
ATOM     11  C   UNL     1       1.750  -0.759  -2.258  0.00  0.00    -0.019 C 
ATOM     12  C   UNL     1       2.381   0.434  -2.343  0.00  0.00    -0.033 C 
ATOM     13  C   UNL     1       2.799   0.936  -3.708  0.00  0.00    +0.042 C 
ATOM     14  C   UNL     1       2.641   1.377  -1.155  0.00  0.00    +0.236 C 
ATOM     15  C   UNL     1       4.075   1.246  -0.542  0.00  0.00    +0.186 C 
ATOM     16  C   UNL     1       4.476   2.218   0.554  0.00  0.00    +0.008 C 
ATOM     17  C   UNL     1       3.781   2.905   1.476  0.00  0.00    -0.001 C 
ATOM     18  C   UNL     1       2.372   2.849   1.776  0.00  0.00    +0.008 C 
ATOM     19  C   UNL     1       1.750   1.861   2.449  0.00  0.00    +0.012 C 
ATOM     20  C   UNL     1       2.426   0.651   3.022  0.00  0.00    +0.049 C 
ATOM     21  C   UNL     1       0.269   2.042   2.656  0.00  0.00    +0.244 C 
ATOM     22  O   UNL     1      -0.223   3.160   2.761  0.00  0.00    -0.270 OA
ATOM     23  N   UNL     1      -0.419   0.855   2.665  0.00  0.00    -0.279 N 
ATOM     24  C   UNL     1      -1.777   0.641   2.547  0.00  0.00    +0.085 C 
ATOM     25  C   UNL     1      -2.757   1.554   2.564  0.00  0.00    +0.076 C 
ATOM     26  C   UNL     1      -4.127   1.193   2.281  0.00  0.00    +0.161 C 
ATOM     27  C   UNL     1      -2.143  -0.794   2.272  0.00  0.00    +0.211 C 
ATOM     28  O   UNL     1      -1.386  -1.693   2.634  0.00  0.00    -0.285 OA
ATOM     29  H   UNL     1       0.110  -0.004   2.557  0.00  0.00    +0.155 HD
ENDROOT
BRANCH   7  30
ATOM     30  O   UNL     1      -1.044  -1.678  -2.861  0.00  0.00    -0.377 OA
ATOM     31  C   UNL     1      -1.379  -0.485  -3.562  0.00  0.00    +0.194 C 
ENDBRANCH   7  30
BRANCH   8  32
ATOM     32  O   UNL     1      -0.321   0.139  -0.186  0.00  0.00    -0.389 OA
ATOM     33  H   UNL     1      -0.224   0.712  -0.978  0.00  0.00    +0.210 HD
ENDBRANCH   8  32
BRANCH  26  34
ATOM     34  O   UNL     1      -5.053   2.161   2.589  0.00  0.00    -0.503 OA
ATOM     35  H   UNL     1      -5.930   1.748   2.486  0.00  0.00    +0.292 HD
ENDBRANCH  26  34
BRANCH   1  37
ATOM     36  C   UNL     1      -6.105   0.290   0.102  0.00  0.00    +0.277 C 
ATOM     37  O   UNL     1      -5.749  -0.298   1.358  0.00  0.00    -0.491 OA
ENDBRANCH   1  37
BRANCH  15  38
ATOM     38  O   UNL     1       5.062   1.449  -1.578  0.00  0.00    -0.372 OA
ATOM     39  C   UNL     1       5.946   0.344  -1.716  0.00  0.00    +0.195 C 
ENDBRANCH  15  38
BRANCH  14  40
ATOM     40  O   UNL     1       2.413   2.747  -1.563  0.00  0.00    -0.440 OA
BRANCH  40  41
ATOM     41  C   UNL     1       1.123   3.120  -1.686  0.00  0.00    +0.398 C 
ATOM     42  N   UNL     1       1.054   4.443  -1.949  0.00  0.00    -0.295 N 
ATOM     43  O   UNL     1       0.139   2.402  -1.590  0.00  0.00    -0.227 OA
ATOM     44  H   UNL     1       1.904   4.983  -2.008  0.00  0.00    +0.148 HD
ATOM     45  H   UNL     1       0.152   4.882  -2.046  0.00  0.00    +0.148 HD
ENDBRANCH  40  41
ENDBRANCH  14  40
TORSDOF 7
