REMARK  Name = 
REMARK  13 active torsions:
REMARK  status: ('A' for Active; 'I' for Inactive)
REMARK    1  A    between atoms: C_1  and  O_2
REMARK    2  A    between atoms: O_2  and  C_3
REMARK    3  A    between atoms: C_6  and  C_7
REMARK    4  A    between atoms: C_9  and  O_10
REMARK    5  A    between atoms: O_10  and  C_11
REMARK    6  A    between atoms: C_12  and  O_13
REMARK    7  A    between atoms: C_14  and  C_15
REMARK    8  A    between atoms: C_17  and  C_18
REMARK    9  A    between atoms: C_19  and  O_20
REMARK   10  A    between atoms: O_20  and  C_21
REMARK   11  A    between atoms: C_24  and  O_25
REMARK   12  A    between atoms: O_25  and  C_26
REMARK   13  A    between atoms: C_30  and  C_31
REMARK                            x       y       z     vdW  Elec       q    Type
REMARK                         _______ _______ _______ _____ _____    ______ ____
ROOT
ATOM      1  C   UNL     1      -2.626  -1.736   0.345  0.00  0.00    +0.173 C 
ATOM      2  C   UNL     1      -2.370  -0.692   1.153  0.00  0.00    +0.047 C 
ATOM      3  C   UNL     1      -2.028  -0.811   2.619  0.00  0.00    +0.046 C 
ATOM      4  C   UNL     1      -0.686  -0.163   3.047  0.00  0.00    -0.007 C 
ATOM      5  C   UNL     1      -0.294  -0.648   4.446  0.00  0.00    +0.008 C 
ATOM      6  C   UNL     1       0.478  -0.332   2.046  0.00  0.00    +0.037 C 
ATOM      7  C   UNL     1       0.864  -1.786   1.698  0.00  0.00    +0.147 C 
ATOM      8  C   UNL     1       1.137  -1.918   0.167  0.00  0.00    +0.150 C 
ATOM      9  C   UNL     1       2.359  -1.114  -0.361  0.00  0.00    +0.040 C 
ATOM     10  C   UNL     1       3.699  -1.837  -0.205  0.00  0.00    +0.014 C 
ATOM     11  C   UNL     1       2.152  -0.786  -1.829  0.00  0.00    -0.019 C 
ATOM     12  C   UNL     1       2.101   0.377  -2.518  0.00  0.00    -0.033 C 
ATOM     13  C   UNL     1       1.810   0.255  -4.008  0.00  0.00    +0.042 C 
ATOM     14  C   UNL     1       2.252   1.855  -2.082  0.00  0.00    +0.236 C 
ATOM     15  C   UNL     1       2.565   2.241  -0.598  0.00  0.00    +0.186 C 
ATOM     16  C   UNL     1       2.517   3.723  -0.264  0.00  0.00    +0.008 C 
ATOM     17  C   UNL     1       1.706   4.736  -0.604  0.00  0.00    -0.001 C 
ATOM     18  C   UNL     1       0.563   4.840  -1.476  0.00  0.00    +0.008 C 
ATOM     19  C   UNL     1      -0.585   4.143  -1.559  0.00  0.00    +0.012 C 
ATOM     20  C   UNL     1      -1.655   4.588  -2.523  0.00  0.00    +0.049 C 
ATOM     21  C   UNL     1      -0.906   2.960  -0.695  0.00  0.00    +0.244 C 
ATOM     22  O   UNL     1      -0.516   2.864   0.460  0.00  0.00    -0.270 OA
ATOM     23  N   UNL     1      -1.593   1.979  -1.389  0.00  0.00    -0.279 N 
ATOM     24  C   UNL     1      -2.126   0.823  -0.859  0.00  0.00    +0.085 C 
ATOM     25  C   UNL     1      -2.424  -0.205  -1.660  0.00  0.00    +0.081 C 
ATOM     26  C   UNL     1      -2.881  -1.495  -1.112  0.00  0.00    +0.222 C 
ATOM     27  O   UNL     1      -3.361  -2.334  -1.865  0.00  0.00    -0.284 OA
ATOM     28  C   UNL     1      -2.461   0.683   0.594  0.00  0.00    +0.207 C 
ATOM     29  O   UNL     1      -2.857   1.616   1.280  0.00  0.00    -0.286 OA
ATOM     30  H   UNL     1      -1.597   2.063  -2.398  0.00  0.00    +0.155 HD
ENDROOT
BRANCH   7  31
ATOM     31  O   UNL     1       1.993  -2.116   2.516  0.00  0.00    -0.377 OA
ATOM     32  C   UNL     1       2.208  -3.513   2.672  0.00  0.00    +0.194 C 
ENDBRANCH   7  31
BRANCH   8  33
ATOM     33  O   UNL     1       1.221  -3.294  -0.227  0.00  0.00    -0.389 OA
ATOM     34  H   UNL     1       0.388  -3.725   0.034  0.00  0.00    +0.210 HD
ENDBRANCH   8  33
BRANCH   1  36
ATOM     35  C   UNL     1      -3.664  -3.851   0.501  0.00  0.00    +0.277 C 
ATOM     36  O   UNL     1      -2.548  -3.030   0.842  0.00  0.00    -0.491 OA
ENDBRANCH   1  36
BRANCH  15  37
ATOM     37  O   UNL     1       3.902   1.766  -0.297  0.00  0.00    -0.372 OA
ATOM     38  C   UNL     1       4.199   1.632   1.089  0.00  0.00    +0.195 C 
ENDBRANCH  15  37
BRANCH  14  39
ATOM     39  O   UNL     1       3.307   2.432  -2.903  0.00  0.00    -0.440 OA
BRANCH  39  40
ATOM     40  C   UNL     1       2.948   3.335  -3.833  0.00  0.00    +0.398 C 
ATOM     41  N   UNL     1       4.054   3.840  -4.421  0.00  0.00    -0.295 N 
ATOM     42  O   UNL     1       1.814   3.664  -4.146  0.00  0.00    -0.227 OA
ATOM     43  H   UNL     1       4.961   3.523  -4.113  0.00  0.00    +0.148 HD
ATOM     44  H   UNL     1       3.962   4.531  -5.149  0.00  0.00    +0.148 HD
ENDBRANCH  39  40
ENDBRANCH  14  39
TORSDOF 6
