REMARK  Name = 
REMARK  15 active torsions:
REMARK  status: ('A' for Active; 'I' for Inactive)
REMARK    1  A    between atoms: C_1  and  O_2
REMARK    2  A    between atoms: O_2  and  C_3
REMARK    3  A    between atoms: C_6  and  C_7
REMARK    4  A    between atoms: C_9  and  O_10
REMARK    5  A    between atoms: O_10  and  C_11
REMARK    6  A    between atoms: C_12  and  O_13
REMARK    7  A    between atoms: C_14  and  C_15
REMARK    8  A    between atoms: C_17  and  C_18
REMARK    9  A    between atoms: C_19  and  O_20
REMARK   10  A    between atoms: O_20  and  C_21
REMARK   11  A    between atoms: C_24  and  O_25
REMARK   12  A    between atoms: O_25  and  C_26
REMARK   13  A    between atoms: C_30  and  C_31
REMARK   14  A    between atoms: C_32  and  O_33
REMARK   15  A    between atoms: C_37  and  O_38
REMARK                            x       y       z     vdW  Elec       q    Type
REMARK                         _______ _______ _______ _____ _____    ______ ____
ROOT
ATOM      1  C   UNL     1      -0.249  -2.035   4.019  0.00  0.00    +0.172 C 
ATOM      2  C   UNL     1       0.642  -1.202   3.205  0.00  0.00    +0.065 C 
ATOM      3  C   UNL     1       1.730  -1.736   2.603  0.00  0.00    -0.008 C 
ATOM      4  C   UNL     1       2.815  -1.087   1.761  0.00  0.00    +0.012 C 
ATOM      5  C   UNL     1       4.146  -1.795   2.051  0.00  0.00    +0.012 C 
ATOM      6  C   UNL     1       2.410  -1.156   0.273  0.00  0.00    +0.041 C 
ATOM      7  C   UNL     1       3.508  -0.784  -0.745  0.00  0.00    +0.147 C 
ATOM      8  C   UNL     1       2.936  -0.757  -2.200  0.00  0.00    +0.150 C 
ATOM      9  C   UNL     1       1.968   0.415  -2.526  0.00  0.00    +0.040 C 
ATOM     10  C   UNL     1       2.638   1.788  -2.647  0.00  0.00    +0.014 C 
ATOM     11  C   UNL     1       1.226   0.163  -3.825  0.00  0.00    -0.019 C 
ATOM     12  C   UNL     1      -0.089   0.155  -4.139  0.00  0.00    -0.033 C 
ATOM     13  C   UNL     1      -0.436  -0.070  -5.605  0.00  0.00    +0.042 C 
ATOM     14  C   UNL     1      -1.359   0.333  -3.291  0.00  0.00    +0.236 C 
ATOM     15  C   UNL     1      -1.418   0.114  -1.738  0.00  0.00    +0.186 C 
ATOM     16  C   UNL     1      -0.994   1.302  -0.903  0.00  0.00    +0.008 C 
ATOM     17  C   UNL     1      -1.526   1.770   0.237  0.00  0.00    -0.001 C 
ATOM     18  C   UNL     1      -2.706   1.278   0.912  0.00  0.00    +0.008 C 
ATOM     19  C   UNL     1      -3.077   1.579   2.170  0.00  0.00    +0.011 C 
ATOM     20  C   UNL     1      -4.369   1.126   2.775  0.00  0.00    +0.049 C 
ATOM     21  C   UNL     1      -2.212   2.387   3.058  0.00  0.00    +0.216 C 
ATOM     22  N   UNL     1      -1.249   2.094   3.856  0.00  0.00    -0.209 NA
ATOM     23  C   UNL     1      -0.887   0.765   3.916  0.00  0.00    +0.118 C 
ATOM     24  C   UNL     1      -1.513  -0.092   4.738  0.00  0.00    +0.081 C 
ATOM     25  C   UNL     1      -1.214  -1.492   4.776  0.00  0.00    +0.161 C 
ATOM     26  C   UNL     1       0.287   0.273   3.083  0.00  0.00    +0.215 C 
ATOM     27  O   UNL     1       0.901   1.051   2.358  0.00  0.00    -0.285 OA
ENDROOT
BRANCH   7  28
ATOM     28  O   UNL     1       4.106   0.447  -0.330  0.00  0.00    -0.377 OA
ATOM     29  C   UNL     1       5.412   0.668  -0.845  0.00  0.00    +0.194 C 
ENDBRANCH   7  28
BRANCH   8  30
ATOM     30  O   UNL     1       4.012  -0.780  -3.157  0.00  0.00    -0.389 OA
ATOM     31  H   UNL     1       4.521  -1.593  -2.999  0.00  0.00    +0.210 HD
ENDBRANCH   8  30
BRANCH  25  32
ATOM     32  O   UNL     1      -2.011  -2.232   5.616  0.00  0.00    -0.503 OA
ATOM     33  H   UNL     1      -1.629  -3.130   5.631  0.00  0.00    +0.292 HD
ENDBRANCH  25  32
BRANCH   1  35
ATOM     34  C   UNL     1      -0.757  -4.056   3.010  0.00  0.00    +0.277 C 
ATOM     35  O   UNL     1      -0.025  -3.405   4.055  0.00  0.00    -0.491 OA
ENDBRANCH   1  35
BRANCH  15  36
ATOM     36  O   UNL     1      -0.655  -1.026  -1.310  0.00  0.00    -0.372 OA
ATOM     37  C   UNL     1      -1.282  -2.265  -1.603  0.00  0.00    +0.195 C 
ENDBRANCH  15  36
BRANCH  21  38
ATOM     38  O   UNL     1      -2.575   3.679   2.987  0.00  0.00    -0.492 OA
ATOM     39  H   UNL     1      -1.960   4.172   3.555  0.00  0.00    +0.294 HD
ENDBRANCH  21  38
BRANCH  14  40
ATOM     40  O   UNL     1      -1.906   1.629  -3.643  0.00  0.00    -0.440 OA
BRANCH  40  41
ATOM     41  C   UNL     1      -3.244   1.755  -3.536  0.00  0.00    +0.398 C 
ATOM     42  N   UNL     1      -3.612   3.015  -3.849  0.00  0.00    -0.295 N 
ATOM     43  O   UNL     1      -4.031   0.882  -3.208  0.00  0.00    -0.227 OA
ATOM     44  H   UNL     1      -4.586   3.273  -3.806  0.00  0.00    +0.148 HD
ATOM     45  H   UNL     1      -2.908   3.695  -4.096  0.00  0.00    +0.148 HD
ENDBRANCH  40  41
ENDBRANCH  14  40
TORSDOF 8
