REMARK  Name = 
REMARK  14 active torsions:
REMARK  status: ('A' for Active; 'I' for Inactive)
REMARK    1  A    between atoms: C_1  and  O_2
REMARK    2  A    between atoms: O_2  and  C_3
REMARK    3  A    between atoms: C_6  and  C_7
REMARK    4  A    between atoms: C_9  and  O_10
REMARK    5  A    between atoms: O_10  and  C_11
REMARK    6  A    between atoms: C_12  and  O_13
REMARK    7  A    between atoms: C_14  and  C_15
REMARK    8  A    between atoms: C_17  and  C_18
REMARK    9  A    between atoms: C_19  and  O_20
REMARK   10  A    between atoms: O_20  and  C_21
REMARK   11  A    between atoms: C_24  and  O_25
REMARK   12  A    between atoms: O_25  and  C_26
REMARK   13  A    between atoms: C_30  and  C_31
REMARK   14  A    between atoms: C_32  and  O_33
REMARK                            x       y       z     vdW  Elec       q    Type
REMARK                         _______ _______ _______ _____ _____    ______ ____
ROOT
ATOM      1  C   UNL     1       3.265   2.636  -0.716  0.00  0.00    +0.173 C 
ATOM      2  C   UNL     1       2.517   1.524  -0.823  0.00  0.00    +0.047 C 
ATOM      3  C   UNL     1       2.416   0.479   0.271  0.00  0.00    +0.046 C 
ATOM      4  C   UNL     1       2.961  -0.932  -0.051  0.00  0.00    -0.007 C 
ATOM      5  C   UNL     1       4.371  -0.871  -0.657  0.00  0.00    +0.008 C 
ATOM      6  C   UNL     1       2.997  -1.850   1.193  0.00  0.00    +0.037 C 
ATOM      7  C   UNL     1       1.714  -1.979   2.040  0.00  0.00    +0.147 C 
ATOM      8  C   UNL     1       0.653  -3.006   1.559  0.00  0.00    +0.150 C 
ATOM      9  C   UNL     1      -0.118  -2.611   0.274  0.00  0.00    +0.040 C 
ATOM     10  C   UNL     1       0.322  -3.390  -0.972  0.00  0.00    +0.014 C 
ATOM     11  C   UNL     1      -1.614  -2.839   0.476  0.00  0.00    -0.019 C 
ATOM     12  C   UNL     1      -2.551  -1.961   0.903  0.00  0.00    -0.033 C 
ATOM     13  C   UNL     1      -3.976  -2.430   1.079  0.00  0.00    +0.042 C 
ATOM     14  C   UNL     1      -2.272  -0.511   1.302  0.00  0.00    +0.236 C 
ATOM     15  C   UNL     1      -3.191   0.548   0.595  0.00  0.00    +0.186 C 
ATOM     16  C   UNL     1      -2.592   1.923   0.709  0.00  0.00    +0.008 C 
ATOM     17  C   UNL     1      -1.937   2.712  -0.155  0.00  0.00    -0.001 C 
ATOM     18  C   UNL     1      -1.516   2.624  -1.538  0.00  0.00    +0.008 C 
ATOM     19  C   UNL     1      -1.379   1.622  -2.424  0.00  0.00    +0.011 C 
ATOM     20  C   UNL     1      -1.698   0.169  -2.336  0.00  0.00    +0.049 C 
ATOM     21  C   UNL     1      -0.697   2.001  -3.688  0.00  0.00    +0.216 C 
ATOM     22  N   UNL     1       0.497   2.385  -3.971  0.00  0.00    -0.209 NA
ATOM     23  C   UNL     1       1.429   2.453  -2.955  0.00  0.00    +0.118 C 
ATOM     24  C   UNL     1       2.188   3.544  -2.827  0.00  0.00    +0.086 C 
ATOM     25  C   UNL     1       3.216   3.682  -1.786  0.00  0.00    +0.223 C 
ATOM     26  O   UNL     1       3.957   4.659  -1.805  0.00  0.00    -0.284 OA
ATOM     27  C   UNL     1       1.705   1.285  -2.049  0.00  0.00    +0.211 C 
ATOM     28  O   UNL     1       1.268   0.166  -2.301  0.00  0.00    -0.285 OA
ENDROOT
BRANCH   7  29
ATOM     29  O   UNL     1       2.135  -2.480   3.339  0.00  0.00    -0.377 OA
ATOM     30  C   UNL     1       2.357  -1.431   4.277  0.00  0.00    +0.194 C 
ENDBRANCH   7  29
BRANCH   8  31
ATOM     31  O   UNL     1       1.248  -4.306   1.448  0.00  0.00    -0.389 OA
ATOM     32  H   UNL     1       1.773  -4.407   2.267  0.00  0.00    +0.210 HD
ENDBRANCH   8  31
BRANCH  21  33
ATOM     33  O   UNL     1      -1.571   1.918  -4.706  0.00  0.00    -0.492 OA
ATOM     34  H   UNL     1      -1.089   2.148  -5.518  0.00  0.00    +0.294 HD
ENDBRANCH  21  33
BRANCH   1  36
ATOM     35  C   UNL     1       5.374   3.225   0.176  0.00  0.00    +0.277 C 
ATOM     36  O   UNL     1       4.024   2.841   0.429  0.00  0.00    -0.491 OA
ENDBRANCH   1  36
BRANCH  15  37
ATOM     37  O   UNL     1      -4.486   0.587   1.230  0.00  0.00    -0.372 OA
ATOM     38  C   UNL     1      -5.504   1.097   0.376  0.00  0.00    +0.195 C 
ENDBRANCH  15  37
BRANCH  14  39
ATOM     39  O   UNL     1      -2.430  -0.452   2.739  0.00  0.00    -0.440 OA
BRANCH  39  40
ATOM     40  C   UNL     1      -1.503   0.239   3.427  0.00  0.00    +0.398 C 
ATOM     41  N   UNL     1      -1.814   0.229   4.741  0.00  0.00    -0.295 N 
ATOM     42  O   UNL     1      -0.518   0.801   2.977  0.00  0.00    -0.227 OA
ATOM     43  H   UNL     1      -1.221   0.710   5.399  0.00  0.00    +0.148 HD
ATOM     44  H   UNL     1      -2.647  -0.250   5.048  0.00  0.00    +0.148 HD
ENDBRANCH  39  40
ENDBRANCH  14  39
TORSDOF 7
