REMARK  Name = 
REMARK  13 active torsions:
REMARK  status: ('A' for Active; 'I' for Inactive)
REMARK    1  A    between atoms: C_1  and  O_2
REMARK    2  A    between atoms: O_2  and  C_3
REMARK    3  A    between atoms: C_6  and  C_7
REMARK    4  A    between atoms: C_9  and  O_10
REMARK    5  A    between atoms: O_10  and  C_11
REMARK    6  A    between atoms: C_12  and  O_13
REMARK    7  A    between atoms: C_14  and  C_15
REMARK    8  A    between atoms: C_17  and  C_18
REMARK    9  A    between atoms: C_19  and  O_20
REMARK   10  A    between atoms: O_20  and  C_21
REMARK   11  A    between atoms: C_24  and  O_25
REMARK   12  A    between atoms: O_25  and  C_26
REMARK   13  A    between atoms: C_30  and  C_31
REMARK                            x       y       z     vdW  Elec       q    Type
REMARK                         _______ _______ _______ _____ _____    ______ ____
ROOT
ATOM      1  C   UNL     1       2.351  -2.229  -1.943  0.00  0.00    +0.169 C 
ATOM      2  C   UNL     1       1.826  -1.276  -2.741  0.00  0.00    +0.046 C 
ATOM      3  C   UNL     1       2.422   0.101  -2.938  0.00  0.00    +0.046 C 
ATOM      4  C   UNL     1       1.771   1.275  -2.162  0.00  0.00    -0.007 C 
ATOM      5  C   UNL     1       0.325   1.507  -2.614  0.00  0.00    +0.008 C 
ATOM      6  C   UNL     1       1.814   1.137  -0.620  0.00  0.00    +0.037 C 
ATOM      7  C   UNL     1       3.119   1.637   0.030  0.00  0.00    +0.147 C 
ATOM      8  C   UNL     1       3.234   1.303   1.544  0.00  0.00    +0.150 C 
ATOM      9  C   UNL     1       2.262   2.015   2.530  0.00  0.00    +0.040 C 
ATOM     10  C   UNL     1       2.427   3.534   2.474  0.00  0.00    +0.014 C 
ATOM     11  C   UNL     1       0.850   1.448   2.517  0.00  0.00    -0.019 C 
ATOM     12  C   UNL     1      -0.366   1.964   2.230  0.00  0.00    -0.033 C 
ATOM     13  C   UNL     1      -0.592   3.380   1.761  0.00  0.00    +0.042 C 
ATOM     14  C   UNL     1      -1.679   1.164   2.333  0.00  0.00    +0.236 C 
ATOM     15  C   UNL     1      -1.617  -0.389   2.528  0.00  0.00    +0.186 C 
ATOM     16  C   UNL     1      -0.911  -1.100   1.391  0.00  0.00    +0.008 C 
ATOM     17  C   UNL     1      -1.316  -1.333   0.131  0.00  0.00    -0.001 C 
ATOM     18  C   UNL     1      -2.585  -0.962  -0.453  0.00  0.00    +0.008 C 
ATOM     19  C   UNL     1      -2.967  -1.012  -1.745  0.00  0.00    +0.013 C 
ATOM     20  C   UNL     1      -4.323  -0.512  -2.166  0.00  0.00    +0.049 C 
ATOM     21  C   UNL     1      -2.129  -1.453  -2.908  0.00  0.00    +0.263 C 
ATOM     22  O   UNL     1      -2.168  -0.848  -3.969  0.00  0.00    -0.268 OA
ATOM     23  N   UNL     1      -1.455  -2.622  -2.685  0.00  0.00    -0.177 NA
ATOM     24  C   UNL     1      -0.208  -2.715  -3.031  0.00  0.00    +0.089 C 
ATOM     25  C   UNL     1       0.562  -3.954  -2.722  0.00  0.00    +0.139 C 
ATOM     26  C   UNL     1       1.779  -3.634  -1.892  0.00  0.00    +0.203 C 
ATOM     27  O   UNL     1       2.317  -4.513  -1.220  0.00  0.00    -0.288 OA
ATOM     28  C   UNL     1       0.668  -1.631  -3.602  0.00  0.00    +0.205 C 
ATOM     29  O   UNL     1       0.484  -1.170  -4.712  0.00  0.00    -0.286 OA
ENDROOT
BRANCH   7  30
ATOM     30  O   UNL     1       4.221   0.986  -0.631  0.00  0.00    -0.377 OA
ATOM     31  C   UNL     1       5.379   1.806  -0.733  0.00  0.00    +0.194 C 
ENDBRANCH   7  30
BRANCH   8  32
ATOM     32  O   UNL     1       3.162  -0.124   1.730  0.00  0.00    -0.389 OA
ATOM     33  H   UNL     1       3.623  -0.513   0.957  0.00  0.00    +0.210 HD
ENDBRANCH   8  32
BRANCH   1  35
ATOM     34  C   UNL     1       4.562  -2.744  -1.297  0.00  0.00    +0.277 C 
ATOM     35  O   UNL     1       3.422  -1.906  -1.119  0.00  0.00    -0.491 OA
ENDBRANCH   1  35
BRANCH  15  36
ATOM     36  O   UNL     1      -2.955  -0.905   2.660  0.00  0.00    -0.372 OA
ATOM     37  C   UNL     1      -3.011  -2.146   3.351  0.00  0.00    +0.195 C 
ENDBRANCH  15  36
BRANCH  14  38
ATOM     38  O   UNL     1      -2.376   1.724   3.475  0.00  0.00    -0.440 OA
BRANCH  38  39
ATOM     39  C   UNL     1      -3.672   2.046   3.280  0.00  0.00    +0.398 C 
ATOM     40  N   UNL     1      -4.211   2.478   4.443  0.00  0.00    -0.295 N 
ATOM     41  O   UNL     1      -4.299   1.996   2.235  0.00  0.00    -0.227 OA
ATOM     42  H   UNL     1      -3.649   2.503   5.278  0.00  0.00    +0.148 HD
ATOM     43  H   UNL     1      -5.180   2.755   4.457  0.00  0.00    +0.148 HD
ENDBRANCH  38  39
ENDBRANCH  14  38
TORSDOF 6
