REMARK  Name = 
REMARK  13 active torsions:
REMARK  status: ('A' for Active; 'I' for Inactive)
REMARK    1  A    between atoms: C_1  and  O_2
REMARK    2  A    between atoms: O_2  and  C_3
REMARK    3  A    between atoms: C_6  and  C_7
REMARK    4  A    between atoms: C_9  and  O_10
REMARK    5  A    between atoms: O_10  and  C_11
REMARK    6  A    between atoms: C_12  and  O_13
REMARK    7  A    between atoms: C_14  and  C_15
REMARK    8  A    between atoms: C_17  and  C_18
REMARK    9  A    between atoms: C_19  and  O_20
REMARK   10  A    between atoms: O_20  and  C_21
REMARK   11  A    between atoms: C_24  and  O_25
REMARK   12  A    between atoms: O_25  and  C_26
REMARK   13  A    between atoms: C_30  and  C_31
REMARK                            x       y       z     vdW  Elec       q    Type
REMARK                         _______ _______ _______ _____ _____    ______ ____
ROOT
ATOM      1  C   UNL     1      -2.835   3.661   3.462  0.00  0.00    +0.169 C 
ATOM      2  C   UNL     1      -1.700   3.011   3.129  0.00  0.00    +0.046 C 
ATOM      3  C   UNL     1      -0.940   2.103   4.080  0.00  0.00    +0.046 C 
ATOM      4  C   UNL     1      -0.997   0.570   3.825  0.00  0.00    -0.007 C 
ATOM      5  C   UNL     1      -2.433   0.094   3.597  0.00  0.00    +0.008 C 
ATOM      6  C   UNL     1      -0.016   0.158   2.709  0.00  0.00    +0.037 C 
ATOM      7  C   UNL     1       0.077  -1.356   2.387  0.00  0.00    +0.147 C 
ATOM      8  C   UNL     1      -0.432  -1.607   0.943  0.00  0.00    +0.150 C 
ATOM      9  C   UNL     1      -0.056  -2.973   0.318  0.00  0.00    +0.040 C 
ATOM     10  C   UNL     1      -0.635  -4.157   1.097  0.00  0.00    +0.014 C 
ATOM     11  C   UNL     1      -0.549  -3.030  -1.125  0.00  0.00    -0.019 C 
ATOM     12  C   UNL     1       0.148  -2.930  -2.280  0.00  0.00    -0.033 C 
ATOM     13  C   UNL     1      -0.591  -3.006  -3.596  0.00  0.00    +0.042 C 
ATOM     14  C   UNL     1       1.661  -2.752  -2.435  0.00  0.00    +0.236 C 
ATOM     15  C   UNL     1       2.140  -1.300  -2.112  0.00  0.00    +0.186 C 
ATOM     16  C   UNL     1       1.827  -0.305  -3.211  0.00  0.00    +0.008 C 
ATOM     17  C   UNL     1       0.955   0.719  -3.205  0.00  0.00    -0.001 C 
ATOM     18  C   UNL     1       0.010   1.004  -2.149  0.00  0.00    +0.008 C 
ATOM     19  C   UNL     1      -0.630   2.165  -1.901  0.00  0.00    +0.013 C 
ATOM     20  C   UNL     1      -0.466   3.450  -2.652  0.00  0.00    +0.049 C 
ATOM     21  C   UNL     1      -1.571   2.151  -0.729  0.00  0.00    +0.263 C 
ATOM     22  O   UNL     1      -1.837   1.135  -0.094  0.00  0.00    -0.268 OA
ATOM     23  N   UNL     1      -2.166   3.355  -0.461  0.00  0.00    -0.177 NA
ATOM     24  C   UNL     1      -2.024   3.817   0.745  0.00  0.00    +0.089 C 
ATOM     25  C   UNL     1      -2.819   4.982   1.217  0.00  0.00    +0.139 C 
ATOM     26  C   UNL     1      -3.449   4.712   2.557  0.00  0.00    +0.203 C 
ATOM     27  O   UNL     1      -4.410   5.384   2.931  0.00  0.00    -0.288 OA
ATOM     28  C   UNL     1      -1.100   3.263   1.797  0.00  0.00    +0.205 C 
ATOM     29  O   UNL     1       0.078   3.096   1.525  0.00  0.00    -0.286 OA
ENDROOT
BRANCH   7  30
ATOM     30  O   UNL     1       1.455  -1.761   2.460  0.00  0.00    -0.377 OA
ATOM     31  C   UNL     1       1.873  -2.045   3.790  0.00  0.00    +0.194 C 
ENDBRANCH   7  30
BRANCH   8  32
ATOM     32  O   UNL     1      -1.852  -1.414   0.899  0.00  0.00    -0.389 OA
ATOM     33  H   UNL     1      -1.994  -0.519   0.519  0.00  0.00    +0.210 HD
ENDBRANCH   8  32
BRANCH   1  35
ATOM     34  C   UNL     1      -4.785   3.166   4.699  0.00  0.00    +0.277 C 
ATOM     35  O   UNL     1      -3.386   3.445   4.720  0.00  0.00    -0.491 OA
ENDBRANCH   1  35
BRANCH  15  36
ATOM     36  O   UNL     1       3.577  -1.265  -1.990  0.00  0.00    -0.372 OA
ATOM     37  C   UNL     1       4.002  -1.081  -0.645  0.00  0.00    +0.195 C 
ENDBRANCH  15  36
BRANCH  14  38
ATOM     38  O   UNL     1       2.300  -3.701  -1.553  0.00  0.00    -0.440 OA
BRANCH  38  39
ATOM     39  C   UNL     1       3.347  -4.381  -2.060  0.00  0.00    +0.398 C 
ATOM     40  N   UNL     1       3.867  -5.183  -1.103  0.00  0.00    -0.295 N 
ATOM     41  O   UNL     1       3.787  -4.328  -3.196  0.00  0.00    -0.227 OA
ATOM     42  H   UNL     1       3.456  -5.194  -0.184  0.00  0.00    +0.148 HD
ATOM     43  H   UNL     1       4.661  -5.761  -1.330  0.00  0.00    +0.148 HD
ENDBRANCH  38  39
ENDBRANCH  14  38
TORSDOF 6
