REMARK  Name = 
REMARK  13 active torsions:
REMARK  status: ('A' for Active; 'I' for Inactive)
REMARK    1  A    between atoms: C_1  and  O_2
REMARK    2  A    between atoms: O_2  and  C_3
REMARK    3  A    between atoms: C_6  and  C_7
REMARK    4  A    between atoms: C_9  and  O_10
REMARK    5  A    between atoms: O_10  and  C_11
REMARK    6  A    between atoms: C_12  and  O_13
REMARK    7  A    between atoms: C_14  and  C_15
REMARK    8  A    between atoms: C_17  and  C_18
REMARK    9  A    between atoms: C_19  and  O_20
REMARK   10  A    between atoms: O_20  and  C_21
REMARK   11  A    between atoms: C_24  and  O_25
REMARK   12  A    between atoms: O_25  and  C_26
REMARK   13  A    between atoms: C_30  and  C_31
REMARK                            x       y       z     vdW  Elec       q    Type
REMARK                         _______ _______ _______ _____ _____    ______ ____
ROOT
ATOM      1  C   UNL     1       1.001   3.140   2.459  0.00  0.00    +0.169 C 
ATOM      2  C   UNL     1       0.269   3.150   1.328  0.00  0.00    +0.046 C 
ATOM      3  C   UNL     1      -1.232   3.295   1.178  0.00  0.00    +0.046 C 
ATOM      4  C   UNL     1      -2.198   2.905   2.323  0.00  0.00    -0.007 C 
ATOM      5  C   UNL     1      -3.631   3.330   1.953  0.00  0.00    +0.008 C 
ATOM      6  C   UNL     1      -2.168   1.436   2.832  0.00  0.00    +0.037 C 
ATOM      7  C   UNL     1      -1.859   0.264   1.866  0.00  0.00    +0.147 C 
ATOM      8  C   UNL     1      -2.885   0.126   0.712  0.00  0.00    +0.150 C 
ATOM      9  C   UNL     1      -2.491  -0.805  -0.484  0.00  0.00    +0.040 C 
ATOM     10  C   UNL     1      -1.594  -0.024  -1.439  0.00  0.00    +0.014 C 
ATOM     11  C   UNL     1      -1.986  -2.169  -0.026  0.00  0.00    -0.019 C 
ATOM     12  C   UNL     1      -1.234  -3.126  -0.622  0.00  0.00    -0.033 C 
ATOM     13  C   UNL     1      -1.037  -4.428   0.126  0.00  0.00    +0.042 C 
ATOM     14  C   UNL     1      -0.685  -3.088  -2.054  0.00  0.00    +0.236 C 
ATOM     15  C   UNL     1       0.532  -4.019  -2.389  0.00  0.00    +0.186 C 
ATOM     16  C   UNL     1       1.827  -3.898  -1.623  0.00  0.00    +0.008 C 
ATOM     17  C   UNL     1       2.476  -2.870  -1.057  0.00  0.00    -0.001 C 
ATOM     18  C   UNL     1       2.164  -1.464  -1.018  0.00  0.00    +0.008 C 
ATOM     19  C   UNL     1       2.095  -0.601  -2.049  0.00  0.00    +0.013 C 
ATOM     20  C   UNL     1       2.236  -0.924  -3.504  0.00  0.00    +0.049 C 
ATOM     21  C   UNL     1       1.868   0.856  -1.759  0.00  0.00    +0.263 C 
ATOM     22  O   UNL     1       1.155   1.537  -2.480  0.00  0.00    -0.268 OA
ATOM     23  N   UNL     1       2.643   1.302  -0.720  0.00  0.00    -0.177 NA
ATOM     24  C   UNL     1       2.274   2.289   0.037  0.00  0.00    +0.089 C 
ATOM     25  C   UNL     1       3.196   2.749   1.117  0.00  0.00    +0.139 C 
ATOM     26  C   UNL     1       2.502   2.962   2.431  0.00  0.00    +0.203 C 
ATOM     27  O   UNL     1       3.163   3.014   3.469  0.00  0.00    -0.288 OA
ATOM     28  C   UNL     1       0.982   3.062   0.019  0.00  0.00    +0.205 C 
ATOM     29  O   UNL     1       0.624   3.694  -0.959  0.00  0.00    -0.286 OA
ENDROOT
BRANCH   7  30
ATOM     30  O   UNL     1      -0.507   0.360   1.401  0.00  0.00    -0.377 OA
ATOM     31  C   UNL     1       0.398  -0.334   2.259  0.00  0.00    +0.194 C 
ENDBRANCH   7  30
BRANCH   8  32
ATOM     32  O   UNL     1      -4.128  -0.326   1.284  0.00  0.00    -0.389 OA
ATOM     33  H   UNL     1      -4.782  -0.357   0.564  0.00  0.00    +0.210 HD
ENDBRANCH   8  32
BRANCH   1  35
ATOM     34  C   UNL     1       0.851   4.362   4.469  0.00  0.00    +0.277 C 
ATOM     35  O   UNL     1       0.377   3.264   3.691  0.00  0.00    -0.491 OA
ENDBRANCH   1  35
BRANCH  15  36
ATOM     36  O   UNL     1       0.892  -3.874  -3.776  0.00  0.00    -0.372 OA
ATOM     37  C   UNL     1       0.924  -5.103  -4.486  0.00  0.00    +0.195 C 
ENDBRANCH  15  36
BRANCH  14  38
ATOM     38  O   UNL     1      -1.808  -3.563  -2.855  0.00  0.00    -0.440 OA
BRANCH  38  39
ATOM     39  C   UNL     1      -2.022  -2.953  -4.036  0.00  0.00    +0.398 C 
ATOM     40  N   UNL     1      -3.077  -3.529  -4.656  0.00  0.00    -0.295 N 
ATOM     41  O   UNL     1      -1.405  -2.018  -4.516  0.00  0.00    -0.227 OA
ATOM     42  H   UNL     1      -3.570  -4.287  -4.213  0.00  0.00    +0.148 HD
ATOM     43  H   UNL     1      -3.364  -3.172  -5.554  0.00  0.00    +0.148 HD
ENDBRANCH  38  39
ENDBRANCH  14  38
TORSDOF 6
