REMARK  Name = 
REMARK  14 active torsions:
REMARK  status: ('A' for Active; 'I' for Inactive)
REMARK    1  A    between atoms: C_1  and  O_2
REMARK    2  A    between atoms: O_2  and  C_3
REMARK    3  A    between atoms: C_6  and  C_7
REMARK    4  A    between atoms: C_9  and  O_10
REMARK    5  A    between atoms: O_10  and  C_11
REMARK    6  A    between atoms: C_12  and  O_13
REMARK    7  A    between atoms: C_14  and  C_15
REMARK    8  A    between atoms: C_17  and  C_18
REMARK    9  A    between atoms: C_19  and  O_20
REMARK   10  A    between atoms: O_20  and  C_21
REMARK   11  A    between atoms: C_24  and  O_25
REMARK   12  A    between atoms: O_25  and  C_26
REMARK   13  A    between atoms: C_30  and  C_31
REMARK   14  A    between atoms: C_37  and  O_38
REMARK                            x       y       z     vdW  Elec       q    Type
REMARK                         _______ _______ _______ _____ _____    ______ ____
ROOT
ATOM      1  C   UNL     1       3.253  -1.669  -3.598  0.00  0.00    +0.168 C 
ATOM      2  C   UNL     1       2.281  -1.787  -2.676  0.00  0.00    +0.047 C 
ATOM      3  C   UNL     1       0.861  -2.220  -2.965  0.00  0.00    +0.046 C 
ATOM      4  C   UNL     1      -0.144  -1.039  -3.040  0.00  0.00    -0.007 C 
ATOM      5  C   UNL     1       0.005  -0.264  -4.352  0.00  0.00    +0.008 C 
ATOM      6  C   UNL     1      -1.598  -1.550  -2.899  0.00  0.00    +0.037 C 
ATOM      7  C   UNL     1      -2.026  -1.693  -1.418  0.00  0.00    +0.147 C 
ATOM      8  C   UNL     1      -2.723  -0.400  -0.890  0.00  0.00    +0.150 C 
ATOM      9  C   UNL     1      -2.966  -0.337   0.652  0.00  0.00    +0.040 C 
ATOM     10  C   UNL     1      -4.289  -1.014   1.032  0.00  0.00    +0.014 C 
ATOM     11  C   UNL     1      -1.860  -0.956   1.479  0.00  0.00    -0.019 C 
ATOM     12  C   UNL     1      -0.968  -0.395   2.322  0.00  0.00    -0.033 C 
ATOM     13  C   UNL     1      -0.041  -1.311   3.092  0.00  0.00    +0.042 C 
ATOM     14  C   UNL     1      -0.800   1.077   2.686  0.00  0.00    +0.236 C 
ATOM     15  C   UNL     1      -0.532   2.107   1.541  0.00  0.00    +0.186 C 
ATOM     16  C   UNL     1       0.511   1.746   0.511  0.00  0.00    +0.008 C 
ATOM     17  C   UNL     1       1.792   1.377   0.657  0.00  0.00    -0.001 C 
ATOM     18  C   UNL     1       2.517   1.278   1.896  0.00  0.00    +0.008 C 
ATOM     19  C   UNL     1       3.391   0.309   2.231  0.00  0.00    +0.013 C 
ATOM     20  C   UNL     1       4.047   0.258   3.578  0.00  0.00    +0.049 C 
ATOM     21  C   UNL     1       3.679  -0.885   1.379  0.00  0.00    +0.264 C 
ATOM     22  O   UNL     1       3.459  -2.021   1.784  0.00  0.00    -0.268 OA
ATOM     23  N   UNL     1       4.423  -0.600   0.268  0.00  0.00    -0.173 NA
ATOM     24  C   UNL     1       3.998  -0.985  -0.902  0.00  0.00    +0.107 C 
ATOM     25  C   UNL     1       4.962  -0.890  -2.022  0.00  0.00    +0.078 C 
ATOM     26  C   UNL     1       4.607  -1.252  -3.258  0.00  0.00    +0.161 C 
ATOM     27  C   UNL     1       2.599  -1.508  -1.243  0.00  0.00    +0.209 C 
ATOM     28  O   UNL     1       1.741  -1.633  -0.381  0.00  0.00    -0.285 OA
ENDROOT
BRANCH   7  29
ATOM     29  O   UNL     1      -2.966  -2.773  -1.299  0.00  0.00    -0.377 OA
ATOM     30  C   UNL     1      -2.335  -4.039  -1.141  0.00  0.00    +0.194 C 
ENDBRANCH   7  29
BRANCH   8  31
ATOM     31  O   UNL     1      -1.998   0.773  -1.288  0.00  0.00    -0.389 OA
ATOM     32  H   UNL     1      -2.593   1.528  -1.146  0.00  0.00    +0.210 HD
ENDBRANCH   8  31
BRANCH  26  33
ATOM     33  O   UNL     1       5.519  -1.248  -4.293  0.00  0.00    -0.503 OA
ATOM     34  H   UNL     1       6.403  -1.040  -3.945  0.00  0.00    +0.292 HD
ENDBRANCH  26  33
BRANCH   1  36
ATOM     35  C   UNL     1       3.193  -0.986  -5.869  0.00  0.00    +0.277 C 
ATOM     36  O   UNL     1       2.990  -2.026  -4.912  0.00  0.00    -0.491 OA
ENDBRANCH   1  36
BRANCH  15  37
ATOM     37  O   UNL     1      -0.142   3.361   2.141  0.00  0.00    -0.372 OA
ATOM     38  C   UNL     1      -0.507   4.494   1.366  0.00  0.00    +0.195 C 
ENDBRANCH  15  37
BRANCH  14  39
ATOM     39  O   UNL     1      -2.034   1.461   3.351  0.00  0.00    -0.440 OA
BRANCH  39  40
ATOM     40  C   UNL     1      -1.913   2.080   4.541  0.00  0.00    +0.398 C 
ATOM     41  N   UNL     1      -3.142   2.396   5.011  0.00  0.00    -0.295 N 
ATOM     42  O   UNL     1      -0.888   2.329   5.152  0.00  0.00    -0.227 OA
ATOM     43  H   UNL     1      -3.216   2.858   5.904  0.00  0.00    +0.148 HD
ATOM     44  H   UNL     1      -3.961   2.146   4.482  0.00  0.00    +0.148 HD
ENDBRANCH  39  40
ENDBRANCH  14  39
TORSDOF 7
