REMARK  Name = 
REMARK  15 active torsions:
REMARK  status: ('A' for Active; 'I' for Inactive)
REMARK    1  A    between atoms: C_1  and  O_2
REMARK    2  A    between atoms: O_2  and  C_3
REMARK    3  A    between atoms: C_6  and  C_7
REMARK    4  A    between atoms: C_9  and  O_10
REMARK    5  A    between atoms: O_10  and  C_11
REMARK    6  A    between atoms: C_12  and  O_13
REMARK    7  A    between atoms: C_14  and  C_15
REMARK    8  A    between atoms: C_17  and  C_18
REMARK    9  A    between atoms: C_19  and  O_20
REMARK   10  A    between atoms: O_20  and  C_21
REMARK   11  A    between atoms: C_24  and  O_25
REMARK   12  A    between atoms: O_25  and  C_26
REMARK   13  A    between atoms: C_30  and  C_31
REMARK   14  A    between atoms: C_32  and  O_33
REMARK   15  A    between atoms: C_37  and  O_38
REMARK                            x       y       z     vdW  Elec       q    Type
REMARK                         _______ _______ _______ _____ _____    ______ ____
ROOT
ATOM      1  C   UNL     1      -0.287  -2.674  -4.128  0.00  0.00    +0.172 C 
ATOM      2  C   UNL     1       0.677  -2.686  -3.028  0.00  0.00    +0.065 C 
ATOM      3  C   UNL     1       1.913  -2.151  -3.083  0.00  0.00    -0.008 C 
ATOM      4  C   UNL     1       2.972  -2.111  -2.000  0.00  0.00    +0.012 C 
ATOM      5  C   UNL     1       4.303  -2.537  -2.645  0.00  0.00    +0.012 C 
ATOM      6  C   UNL     1       3.144  -0.717  -1.338  0.00  0.00    +0.041 C 
ATOM      7  C   UNL     1       2.286  -0.378  -0.090  0.00  0.00    +0.147 C 
ATOM      8  C   UNL     1       1.070   0.552  -0.337  0.00  0.00    +0.150 C 
ATOM      9  C   UNL     1       1.466   2.016  -0.668  0.00  0.00    +0.040 C 
ATOM     10  C   UNL     1       1.056   2.488  -2.067  0.00  0.00    +0.014 C 
ATOM     11  C   UNL     1       1.029   3.032   0.385  0.00  0.00    -0.019 C 
ATOM     12  C   UNL     1      -0.200   3.357   0.851  0.00  0.00    -0.033 C 
ATOM     13  C   UNL     1      -0.328   4.519   1.812  0.00  0.00    +0.042 C 
ATOM     14  C   UNL     1      -1.519   2.712   0.415  0.00  0.00    +0.236 C 
ATOM     15  C   UNL     1      -2.543   2.356   1.556  0.00  0.00    +0.186 C 
ATOM     16  C   UNL     1      -1.988   1.656   2.784  0.00  0.00    +0.008 C 
ATOM     17  C   UNL     1      -1.689   0.362   2.995  0.00  0.00    -0.001 C 
ATOM     18  C   UNL     1      -1.702  -0.681   1.995  0.00  0.00    +0.008 C 
ATOM     19  C   UNL     1      -1.397  -1.984   2.178  0.00  0.00    +0.011 C 
ATOM     20  C   UNL     1      -1.110  -2.662   3.482  0.00  0.00    +0.049 C 
ATOM     21  C   UNL     1      -1.193  -2.767   0.920  0.00  0.00    +0.216 C 
ATOM     22  N   UNL     1      -1.628  -2.382  -0.232  0.00  0.00    -0.209 NA
ATOM     23  C   UNL     1      -1.272  -2.920  -1.440  0.00  0.00    +0.118 C 
ATOM     24  C   UNL     1      -2.083  -2.768  -2.503  0.00  0.00    +0.081 C 
ATOM     25  C   UNL     1      -1.595  -2.854  -3.860  0.00  0.00    +0.161 C 
ATOM     26  C   UNL     1       0.153  -3.297  -1.759  0.00  0.00    +0.215 C 
ATOM     27  O   UNL     1       0.778  -4.082  -1.052  0.00  0.00    -0.285 OA
ENDROOT
BRANCH   7  28
ATOM     28  O   UNL     1       1.793  -1.559   0.557  0.00  0.00    -0.377 OA
ATOM     29  C   UNL     1       2.727  -2.140   1.457  0.00  0.00    +0.194 C 
ENDBRANCH   7  28
BRANCH   8  30
ATOM     30  O   UNL     1       0.219   0.010  -1.343  0.00  0.00    -0.389 OA
ATOM     31  H   UNL     1      -0.360  -0.630  -0.885  0.00  0.00    +0.210 HD
ENDBRANCH   8  30
BRANCH  25  32
ATOM     32  O   UNL     1      -2.563  -2.984  -4.824  0.00  0.00    -0.503 OA
ATOM     33  H   UNL     1      -2.094  -3.099  -5.670  0.00  0.00    +0.292 HD
ENDBRANCH  25  32
BRANCH   1  35
ATOM     34  C   UNL     1       0.047  -1.289  -5.949  0.00  0.00    +0.277 C 
ATOM     35  O   UNL     1       0.210  -2.608  -5.416  0.00  0.00    -0.491 OA
ENDBRANCH   1  35
BRANCH  15  36
ATOM     36  O   UNL     1      -3.601   1.563   0.990  0.00  0.00    -0.372 OA
ATOM     37  C   UNL     1      -4.842   1.698   1.667  0.00  0.00    +0.195 C 
ENDBRANCH  15  36
BRANCH  21  38
ATOM     38  O   UNL     1      -0.452  -3.861   1.172  0.00  0.00    -0.492 OA
ATOM     39  H   UNL     1      -0.069  -4.237   0.356  0.00  0.00    +0.294 HD
ENDBRANCH  21  38
BRANCH  14  40
ATOM     40  O   UNL     1      -2.153   3.713  -0.431  0.00  0.00    -0.440 OA
BRANCH  40  41
ATOM     41  C   UNL     1      -2.801   3.267  -1.525  0.00  0.00    +0.398 C 
ATOM     42  N   UNL     1      -3.370   4.312  -2.168  0.00  0.00    -0.295 N 
ATOM     43  O   UNL     1      -2.887   2.120  -1.928  0.00  0.00    -0.227 OA
ATOM     44  H   UNL     1      -3.259   5.246  -1.810  0.00  0.00    +0.148 HD
ATOM     45  H   UNL     1      -3.889   4.133  -3.014  0.00  0.00    +0.148 HD
ENDBRANCH  40  41
ENDBRANCH  14  40
TORSDOF 8
