REMARK  Name = 
REMARK  13 active torsions:
REMARK  status: ('A' for Active; 'I' for Inactive)
REMARK    1  A    between atoms: C_1  and  O_2
REMARK    2  A    between atoms: O_2  and  C_3
REMARK    3  A    between atoms: C_6  and  C_7
REMARK    4  A    between atoms: C_9  and  O_10
REMARK    5  A    between atoms: O_10  and  C_11
REMARK    6  A    between atoms: C_12  and  O_13
REMARK    7  A    between atoms: C_14  and  C_15
REMARK    8  A    between atoms: C_17  and  C_18
REMARK    9  A    between atoms: C_19  and  O_20
REMARK   10  A    between atoms: O_20  and  C_21
REMARK   11  A    between atoms: C_24  and  O_25
REMARK   12  A    between atoms: O_25  and  C_26
REMARK   13  A    between atoms: C_30  and  C_31
REMARK                            x       y       z     vdW  Elec       q    Type
REMARK                         _______ _______ _______ _____ _____    ______ ____
ROOT
ATOM      1  C   UNL     1      -2.798  -3.674  -0.070  0.00  0.00    +0.173 C 
ATOM      2  C   UNL     1      -2.769  -2.353   0.183  0.00  0.00    +0.047 C 
ATOM      3  C   UNL     1      -2.942  -1.772   1.569  0.00  0.00    +0.046 C 
ATOM      4  C   UNL     1      -1.712  -1.058   2.191  0.00  0.00    -0.007 C 
ATOM      5  C   UNL     1      -2.174  -0.472   3.536  0.00  0.00    +0.008 C 
ATOM      6  C   UNL     1      -0.492  -2.001   2.349  0.00  0.00    +0.037 C 
ATOM      7  C   UNL     1       0.898  -1.310   2.420  0.00  0.00    +0.147 C 
ATOM      8  C   UNL     1       1.428  -0.874   1.016  0.00  0.00    +0.150 C 
ATOM      9  C   UNL     1       2.668   0.073   1.103  0.00  0.00    +0.040 C 
ATOM     10  C   UNL     1       3.866  -0.622   1.776  0.00  0.00    +0.014 C 
ATOM     11  C   UNL     1       3.142   0.643  -0.234  0.00  0.00    -0.019 C 
ATOM     12  C   UNL     1       2.593   1.603  -1.019  0.00  0.00    -0.033 C 
ATOM     13  C   UNL     1       3.376   2.096  -2.221  0.00  0.00    +0.042 C 
ATOM     14  C   UNL     1       1.237   2.321  -0.846  0.00  0.00    +0.236 C 
ATOM     15  C   UNL     1       0.185   2.036  -1.994  0.00  0.00    +0.186 C 
ATOM     16  C   UNL     1       0.355   0.693  -2.699  0.00  0.00    +0.008 C 
ATOM     17  C   UNL     1      -0.095   0.319  -3.910  0.00  0.00    -0.001 C 
ATOM     18  C   UNL     1      -1.040   1.059  -4.716  0.00  0.00    +0.008 C 
ATOM     19  C   UNL     1      -2.368   1.124  -4.487  0.00  0.00    +0.012 C 
ATOM     20  C   UNL     1      -3.292   2.007  -5.264  0.00  0.00    +0.049 C 
ATOM     21  C   UNL     1      -3.010   0.347  -3.378  0.00  0.00    +0.244 C 
ATOM     22  O   UNL     1      -3.845   0.858  -2.644  0.00  0.00    -0.270 OA
ATOM     23  N   UNL     1      -2.672  -0.992  -3.400  0.00  0.00    -0.279 N 
ATOM     24  C   UNL     1      -2.692  -1.863  -2.331  0.00  0.00    +0.085 C 
ATOM     25  C   UNL     1      -2.643  -3.179  -2.556  0.00  0.00    +0.081 C 
ATOM     26  C   UNL     1      -2.617  -4.169  -1.469  0.00  0.00    +0.222 C 
ATOM     27  O   UNL     1      -2.474  -5.353  -1.755  0.00  0.00    -0.284 OA
ATOM     28  C   UNL     1      -2.593  -1.364  -0.920  0.00  0.00    +0.207 C 
ATOM     29  O   UNL     1      -2.289  -0.205  -0.659  0.00  0.00    -0.286 OA
ATOM     30  H   UNL     1      -2.351  -1.348  -4.291  0.00  0.00    +0.155 HD
ENDROOT
BRANCH   7  31
ATOM     31  O   UNL     1       0.864  -0.181   3.304  0.00  0.00    -0.377 OA
ATOM     32  C   UNL     1       1.133  -0.541   4.657  0.00  0.00    +0.194 C 
ENDBRANCH   7  31
BRANCH   8  33
ATOM     33  O   UNL     1       1.749  -2.052   0.258  0.00  0.00    -0.389 OA
ATOM     34  H   UNL     1       2.119  -1.741  -0.587  0.00  0.00    +0.210 HD
ENDBRANCH   8  33
BRANCH   1  36
ATOM     35  C   UNL     1      -3.763  -5.693   0.733  0.00  0.00    +0.277 C 
ATOM     36  O   UNL     1      -2.931  -4.565   0.989  0.00  0.00    -0.491 OA
ENDBRANCH   1  36
BRANCH  15  37
ATOM     37  O   UNL     1       0.317   3.054  -3.009  0.00  0.00    -0.372 OA
ATOM     38  C   UNL     1      -0.504   4.187  -2.753  0.00  0.00    +0.195 C 
ENDBRANCH  15  37
BRANCH  14  39
ATOM     39  O   UNL     1       0.684   1.966   0.433  0.00  0.00    -0.440 OA
BRANCH  39  40
ATOM     40  C   UNL     1      -0.126   2.867   1.018  0.00  0.00    +0.398 C 
ATOM     41  N   UNL     1      -0.443   2.447   2.262  0.00  0.00    -0.295 N 
ATOM     42  O   UNL     1      -0.509   3.921   0.539  0.00  0.00    -0.227 OA
ATOM     43  H   UNL     1      -1.056   3.004   2.834  0.00  0.00    +0.148 HD
ATOM     44  H   UNL     1      -0.062   1.574   2.611  0.00  0.00    +0.148 HD
ENDBRANCH  39  40
ENDBRANCH  14  39
TORSDOF 6
