REMARK  Name = 
REMARK  15 active torsions:
REMARK  status: ('A' for Active; 'I' for Inactive)
REMARK    1  A    between atoms: C_1  and  O_2
REMARK    2  A    between atoms: O_2  and  C_3
REMARK    3  A    between atoms: C_6  and  C_7
REMARK    4  A    between atoms: C_9  and  O_10
REMARK    5  A    between atoms: O_10  and  C_11
REMARK    6  A    between atoms: C_12  and  O_13
REMARK    7  A    between atoms: C_14  and  C_15
REMARK    8  A    between atoms: C_17  and  C_18
REMARK    9  A    between atoms: C_19  and  O_20
REMARK   10  A    between atoms: O_20  and  C_21
REMARK   11  A    between atoms: C_24  and  O_25
REMARK   12  A    between atoms: O_25  and  C_26
REMARK   13  A    between atoms: C_30  and  C_31
REMARK   14  A    between atoms: C_32  and  O_33
REMARK   15  A    between atoms: C_37  and  O_38
REMARK                            x       y       z     vdW  Elec       q    Type
REMARK                         _______ _______ _______ _____ _____    ______ ____
ROOT
ATOM      1  C   UNL     1      -0.971   3.372  -1.344  0.00  0.00    +0.172 C 
ATOM      2  C   UNL     1      -0.921   2.039  -1.977  0.00  0.00    +0.065 C 
ATOM      3  C   UNL     1      -0.154   1.796  -3.070  0.00  0.00    -0.008 C 
ATOM      4  C   UNL     1       0.047   0.506  -3.842  0.00  0.00    +0.012 C 
ATOM      5  C   UNL     1      -0.923   0.463  -5.027  0.00  0.00    +0.012 C 
ATOM      6  C   UNL     1       1.493   0.327  -4.355  0.00  0.00    +0.041 C 
ATOM      7  C   UNL     1       2.607   0.432  -3.300  0.00  0.00    +0.147 C 
ATOM      8  C   UNL     1       2.400  -0.421  -2.023  0.00  0.00    +0.150 C 
ATOM      9  C   UNL     1       2.143  -1.946  -2.209  0.00  0.00    +0.040 C 
ATOM     10  C   UNL     1       3.328  -2.730  -2.777  0.00  0.00    +0.014 C 
ATOM     11  C   UNL     1       1.782  -2.518  -0.847  0.00  0.00    -0.019 C 
ATOM     12  C   UNL     1       0.576  -2.906  -0.378  0.00  0.00    -0.033 C 
ATOM     13  C   UNL     1      -0.690  -2.967  -1.190  0.00  0.00    +0.042 C 
ATOM     14  C   UNL     1       0.427  -3.246   1.110  0.00  0.00    +0.236 C 
ATOM     15  C   UNL     1      -0.324  -2.138   1.937  0.00  0.00    +0.186 C 
ATOM     16  C   UNL     1       0.209  -0.741   1.695  0.00  0.00    +0.008 C 
ATOM     17  C   UNL     1      -0.246   0.436   2.149  0.00  0.00    -0.001 C 
ATOM     18  C   UNL     1      -1.345   0.671   3.050  0.00  0.00    +0.008 C 
ATOM     19  C   UNL     1      -2.662   0.468   2.880  0.00  0.00    +0.011 C 
ATOM     20  C   UNL     1      -3.637   0.779   3.983  0.00  0.00    +0.049 C 
ATOM     21  C   UNL     1      -3.287  -0.065   1.645  0.00  0.00    +0.216 C 
ATOM     22  N   UNL     1      -3.299   0.231   0.403  0.00  0.00    -0.209 NA
ATOM     23  C   UNL     1      -2.544   1.256  -0.119  0.00  0.00    +0.118 C 
ATOM     24  C   UNL     1      -2.533   2.518   0.336  0.00  0.00    +0.081 C 
ATOM     25  C   UNL     1      -1.749   3.578  -0.257  0.00  0.00    +0.161 C 
ATOM     26  C   UNL     1      -1.801   0.952  -1.400  0.00  0.00    +0.215 C 
ATOM     27  O   UNL     1      -1.965  -0.135  -1.951  0.00  0.00    -0.285 OA
ENDROOT
BRANCH   7  28
ATOM     28  O   UNL     1       3.884   0.059  -3.861  0.00  0.00    -0.377 OA
ATOM     29  C   UNL     1       4.430   1.030  -4.745  0.00  0.00    +0.194 C 
ENDBRANCH   7  28
BRANCH   8  30
ATOM     30  O   UNL     1       3.560  -0.218  -1.188  0.00  0.00    -0.389 OA
ATOM     31  H   UNL     1       4.322  -0.302  -1.796  0.00  0.00    +0.210 HD
ENDBRANCH   8  30
BRANCH  25  32
ATOM     32  O   UNL     1      -1.850   4.798   0.378  0.00  0.00    -0.503 OA
ATOM     33  H   UNL     1      -2.479   4.743   1.115  0.00  0.00    +0.292 HD
ENDBRANCH  25  32
BRANCH   1  35
ATOM     34  C   UNL     1      -0.084   5.629  -1.489  0.00  0.00    +0.277 C 
ATOM     35  O   UNL     1      -0.169   4.300  -1.980  0.00  0.00    -0.491 OA
ENDBRANCH   1  35
BRANCH  15  36
ATOM     36  O   UNL     1      -0.139  -2.395   3.344  0.00  0.00    -0.372 OA
ATOM     37  C   UNL     1      -1.244  -3.063   3.935  0.00  0.00    +0.195 C 
ENDBRANCH  15  36
BRANCH  21  38
ATOM     38  O   UNL     1      -4.058  -1.118   1.979  0.00  0.00    -0.492 OA
ATOM     39  H   UNL     1      -4.436  -1.451   1.147  0.00  0.00    +0.294 HD
ENDBRANCH  21  38
BRANCH  14  40
ATOM     40  O   UNL     1      -0.318  -4.482   1.209  0.00  0.00    -0.440 OA
BRANCH  40  41
ATOM     41  C   UNL     1       0.408  -5.602   1.393  0.00  0.00    +0.398 C 
ATOM     42  N   UNL     1      -0.417  -6.672   1.453  0.00  0.00    -0.295 N 
ATOM     43  O   UNL     1       1.620  -5.695   1.496  0.00  0.00    -0.227 OA
ATOM     44  H   UNL     1      -1.411  -6.549   1.345  0.00  0.00    +0.148 HD
ATOM     45  H   UNL     1      -0.016  -7.588   1.581  0.00  0.00    +0.148 HD
ENDBRANCH  40  41
ENDBRANCH  14  40
TORSDOF 8
