REMARK  Name = 
REMARK  13 active torsions:
REMARK  status: ('A' for Active; 'I' for Inactive)
REMARK    1  A    between atoms: C_1  and  O_2
REMARK    2  A    between atoms: O_2  and  C_3
REMARK    3  A    between atoms: C_6  and  C_7
REMARK    4  A    between atoms: C_9  and  O_10
REMARK    5  A    between atoms: O_10  and  C_11
REMARK    6  A    between atoms: C_12  and  O_13
REMARK    7  A    between atoms: C_14  and  C_15
REMARK    8  A    between atoms: C_17  and  C_18
REMARK    9  A    between atoms: C_19  and  O_20
REMARK   10  A    between atoms: O_20  and  C_21
REMARK   11  A    between atoms: C_24  and  O_25
REMARK   12  A    between atoms: O_25  and  C_26
REMARK   13  A    between atoms: C_30  and  C_31
REMARK                            x       y       z     vdW  Elec       q    Type
REMARK                         _______ _______ _______ _____ _____    ______ ____
ROOT
ATOM      1  C   UNL     1      -1.513  -1.404  -3.729  0.00  0.00    +0.169 C 
ATOM      2  C   UNL     1      -0.791  -1.658  -2.618  0.00  0.00    +0.046 C 
ATOM      3  C   UNL     1       0.686  -2.003  -2.662  0.00  0.00    +0.046 C 
ATOM      4  C   UNL     1       1.696  -0.827  -2.533  0.00  0.00    -0.007 C 
ATOM      5  C   UNL     1       1.300   0.397  -3.365  0.00  0.00    +0.008 C 
ATOM      6  C   UNL     1       2.000  -0.456  -1.058  0.00  0.00    +0.037 C 
ATOM      7  C   UNL     1       3.086   0.635  -0.879  0.00  0.00    +0.147 C 
ATOM      8  C   UNL     1       3.670   0.706   0.560  0.00  0.00    +0.150 C 
ATOM      9  C   UNL     1       2.645   0.902   1.704  0.00  0.00    +0.040 C 
ATOM     10  C   UNL     1       3.365   0.988   3.057  0.00  0.00    +0.014 C 
ATOM     11  C   UNL     1       1.787   2.140   1.526  0.00  0.00    -0.019 C 
ATOM     12  C   UNL     1       0.523   2.376   1.956  0.00  0.00    -0.033 C 
ATOM     13  C   UNL     1      -0.042   3.760   1.732  0.00  0.00    +0.042 C 
ATOM     14  C   UNL     1      -0.359   1.390   2.759  0.00  0.00    +0.236 C 
ATOM     15  C   UNL     1      -1.900   1.727   2.840  0.00  0.00    +0.186 C 
ATOM     16  C   UNL     1      -2.660   0.772   3.755  0.00  0.00    +0.008 C 
ATOM     17  C   UNL     1      -3.227  -0.422   3.501  0.00  0.00    -0.001 C 
ATOM     18  C   UNL     1      -3.222  -1.094   2.222  0.00  0.00    +0.008 C 
ATOM     19  C   UNL     1      -3.441  -2.400   1.973  0.00  0.00    +0.013 C 
ATOM     20  C   UNL     1      -3.719  -3.482   2.968  0.00  0.00    +0.049 C 
ATOM     21  C   UNL     1      -3.278  -2.876   0.559  0.00  0.00    +0.263 C 
ATOM     22  O   UNL     1      -2.845  -3.987   0.284  0.00  0.00    -0.268 OA
ATOM     23  N   UNL     1      -3.767  -1.998  -0.370  0.00  0.00    -0.177 NA
ATOM     24  C   UNL     1      -2.944  -1.490  -1.236  0.00  0.00    +0.089 C 
ATOM     25  C   UNL     1      -3.482  -0.584  -2.289  0.00  0.00    +0.139 C 
ATOM     26  C   UNL     1      -2.932  -0.908  -3.643  0.00  0.00    +0.203 C 
ATOM     27  O   UNL     1      -3.596  -0.691  -4.654  0.00  0.00    -0.288 OA
ATOM     28  C   UNL     1      -1.443  -1.697  -1.281  0.00  0.00    +0.205 C 
ATOM     29  O   UNL     1      -0.817  -1.879  -0.248  0.00  0.00    -0.286 OA
ENDROOT
BRANCH   7  30
ATOM     30  O   UNL     1       4.176   0.318  -1.775  0.00  0.00    -0.377 OA
ATOM     31  C   UNL     1       4.938   1.454  -2.167  0.00  0.00    +0.194 C 
ENDBRANCH   7  30
BRANCH   8  32
ATOM     32  O   UNL     1       4.426  -0.496   0.798  0.00  0.00    -0.389 OA
ATOM     33  H   UNL     1       4.836  -0.720  -0.062  0.00  0.00    +0.210 HD
ENDBRANCH   8  32
BRANCH   1  35
ATOM     34  C   UNL     1      -1.598  -2.258  -5.929  0.00  0.00    +0.277 C 
ATOM     35  O   UNL     1      -0.893  -1.469  -4.971  0.00  0.00    -0.491 OA
ENDBRANCH   1  35
BRANCH  15  36
ATOM     36  O   UNL     1      -2.477   1.770   1.522  0.00  0.00    -0.372 OA
ATOM     37  C   UNL     1      -3.681   2.526   1.465  0.00  0.00    +0.195 C 
ENDBRANCH  15  36
BRANCH  14  38
ATOM     38  O   UNL     1      -0.211   0.076   2.184  0.00  0.00    -0.440 OA
BRANCH  38  39
ATOM     39  C   UNL     1       0.030  -0.934   3.050  0.00  0.00    +0.398 C 
ATOM     40  N   UNL     1       0.105  -2.102   2.378  0.00  0.00    -0.295 N 
ATOM     41  O   UNL     1       0.171  -0.842   4.260  0.00  0.00    -0.227 OA
ATOM     42  H   UNL     1       0.282  -2.962   2.870  0.00  0.00    +0.148 HD
ATOM     43  H   UNL     1      -0.079  -2.109   1.378  0.00  0.00    +0.148 HD
ENDBRANCH  38  39
ENDBRANCH  14  38
TORSDOF 6
