REMARK  Name = 
REMARK  14 active torsions:
REMARK  status: ('A' for Active; 'I' for Inactive)
REMARK    1  A    between atoms: C_1  and  O_2
REMARK    2  A    between atoms: O_2  and  C_3
REMARK    3  A    between atoms: C_6  and  C_7
REMARK    4  A    between atoms: C_9  and  O_10
REMARK    5  A    between atoms: O_10  and  C_11
REMARK    6  A    between atoms: C_12  and  O_13
REMARK    7  A    between atoms: C_14  and  C_15
REMARK    8  A    between atoms: C_17  and  C_18
REMARK    9  A    between atoms: C_19  and  O_20
REMARK   10  A    between atoms: O_20  and  C_21
REMARK   11  A    between atoms: C_21  and  O_23
REMARK   12  A    between atoms: C_24  and  O_25
REMARK   13  A    between atoms: O_25  and  C_26
REMARK   14  A    between atoms: C_30  and  C_31
REMARK                            x       y       z     vdW  Elec       q    Type
REMARK                         _______ _______ _______ _____ _____    ______ ____
ROOT
ATOM      1  C   UNL     1       2.964   3.503   1.481  0.00  0.00    +0.173 C 
ATOM      2  C   UNL     1       2.686   2.828   0.353  0.00  0.00    +0.047 C 
ATOM      3  C   UNL     1       2.150   3.505  -0.893  0.00  0.00    +0.046 C 
ATOM      4  C   UNL     1       0.613   3.755  -0.862  0.00  0.00    -0.007 C 
ATOM      5  C   UNL     1       0.160   4.237  -2.242  0.00  0.00    +0.008 C 
ATOM      6  C   UNL     1      -0.171   2.505  -0.388  0.00  0.00    +0.037 C 
ATOM      7  C   UNL     1      -1.712   2.588  -0.425  0.00  0.00    +0.147 C 
ATOM      8  C   UNL     1      -2.406   1.336   0.217  0.00  0.00    +0.150 C 
ATOM      9  C   UNL     1      -2.637   0.145  -0.759  0.00  0.00    +0.040 C 
ATOM     10  C   UNL     1      -1.413  -0.349  -1.517  0.00  0.00    +0.014 C 
ATOM     11  C   UNL     1      -3.494  -0.968  -0.161  0.00  0.00    -0.019 C 
ATOM     12  C   UNL     1      -3.259  -2.144   0.468  0.00  0.00    -0.033 C 
ATOM     13  C   UNL     1      -4.467  -3.005   0.800  0.00  0.00    +0.042 C 
ATOM     14  C   UNL     1      -1.958  -2.778   0.987  0.00  0.00    +0.236 C 
ATOM     15  C   UNL     1      -1.284  -3.809   0.013  0.00  0.00    +0.186 C 
ATOM     16  C   UNL     1      -0.265  -4.689   0.724  0.00  0.00    +0.008 C 
ATOM     17  C   UNL     1       1.041  -4.475   0.968  0.00  0.00    -0.001 C 
ATOM     18  C   UNL     1       1.760  -3.250   0.700  0.00  0.00    +0.008 C 
ATOM     19  C   UNL     1       3.079  -3.037   0.847  0.00  0.00    +0.012 C 
ATOM     20  C   UNL     1       4.159  -4.011   1.182  0.00  0.00    +0.049 C 
ATOM     21  C   UNL     1       3.530  -1.629   0.630  0.00  0.00    +0.244 C 
ATOM     22  O   UNL     1       4.364  -1.351  -0.220  0.00  0.00    -0.270 OA
ATOM     23  N   UNL     1       3.024  -0.775   1.591  0.00  0.00    -0.279 N 
ATOM     24  C   UNL     1       3.075   0.603   1.556  0.00  0.00    +0.085 C 
ATOM     25  C   UNL     1       3.227   1.285   2.694  0.00  0.00    +0.081 C 
ATOM     26  C   UNL     1       3.291   2.755   2.734  0.00  0.00    +0.222 C 
ATOM     27  O   UNL     1       3.583   3.301   3.792  0.00  0.00    -0.284 OA
ATOM     28  C   UNL     1       2.812   1.339   0.279  0.00  0.00    +0.207 C 
ATOM     29  O   UNL     1       2.576   0.753  -0.774  0.00  0.00    -0.286 OA
ATOM     30  H   UNL     1       2.614  -1.205   2.413  0.00  0.00    +0.155 HD
ENDROOT
BRANCH   7  31
ATOM     31  O   UNL     1      -2.059   3.776   0.315  0.00  0.00    -0.377 OA
ATOM     32  C   UNL     1      -3.297   4.349  -0.082  0.00  0.00    +0.194 C 
ENDBRANCH   7  31
BRANCH   8  33
ATOM     33  O   UNL     1      -1.703   0.918   1.390  0.00  0.00    -0.389 OA
ATOM     34  H   UNL     1      -1.025   0.278   1.107  0.00  0.00    +0.210 HD
ENDBRANCH   8  33
BRANCH  15  35
ATOM     35  O   UNL     1      -0.681  -3.164  -1.107  0.00  0.00    -0.372 OA
ATOM     36  C   UNL     1      -0.528  -4.005  -2.242  0.00  0.00    +0.195 C 
ENDBRANCH  15  35
BRANCH   1  38
ATOM     37  C   UNL     1       3.842   5.589   2.193  0.00  0.00    +0.277 C 
ATOM     38  O   UNL     1       2.820   4.886   1.493  0.00  0.00    -0.491 OA
ENDBRANCH   1  38
BRANCH  14  39
ATOM     39  O   UNL     1      -1.025  -1.776   1.440  0.00  0.00    -0.439 OA
BRANCH  39  40
ATOM     40  C   UNL     1      -0.896  -1.605   2.769  0.00  0.00    +0.381 C 
ATOM     41  N   UNL     1      -1.776  -1.742   3.684  0.00  0.00    -0.233 NA
ATOM     42  H   UNL     1      -2.685  -1.928   3.256  0.00  0.00    +0.193 HD
BRANCH  40  43
ATOM     43  O   UNL     1       0.329  -1.202   3.115  0.00  0.00    -0.466 OA
ATOM     44  H   UNL     1       0.269  -1.036   4.072  0.00  0.00    +0.297 HD
ENDBRANCH  40  43
ENDBRANCH  39  40
ENDBRANCH  14  39
TORSDOF 7
