REMARK  Name = 
REMARK  14 active torsions:
REMARK  status: ('A' for Active; 'I' for Inactive)
REMARK    1  A    between atoms: C_1  and  O_2
REMARK    2  A    between atoms: O_2  and  C_3
REMARK    3  A    between atoms: C_6  and  C_7
REMARK    4  A    between atoms: C_9  and  O_10
REMARK    5  A    between atoms: O_10  and  C_11
REMARK    6  A    between atoms: C_12  and  O_13
REMARK    7  A    between atoms: C_14  and  C_15
REMARK    8  A    between atoms: C_17  and  C_18
REMARK    9  A    between atoms: C_19  and  O_20
REMARK   10  A    between atoms: O_20  and  C_21
REMARK   11  A    between atoms: C_24  and  O_25
REMARK   12  A    between atoms: O_25  and  C_26
REMARK   13  A    between atoms: C_30  and  C_31
REMARK   14  A    between atoms: C_32  and  O_33
REMARK                            x       y       z     vdW  Elec       q    Type
REMARK                         _______ _______ _______ _____ _____    ______ ____
ROOT
ATOM      1  C   UNL     1      -1.106  -0.790   3.420  0.00  0.00    +0.173 C 
ATOM      2  C   UNL     1      -1.992  -0.752   2.408  0.00  0.00    +0.047 C 
ATOM      3  C   UNL     1      -2.719  -1.980   1.901  0.00  0.00    +0.046 C 
ATOM      4  C   UNL     1      -1.896  -2.915   0.985  0.00  0.00    -0.007 C 
ATOM      5  C   UNL     1      -2.728  -4.168   0.687  0.00  0.00    +0.008 C 
ATOM      6  C   UNL     1      -1.450  -2.196  -0.311  0.00  0.00    +0.037 C 
ATOM      7  C   UNL     1      -0.565  -3.046  -1.238  0.00  0.00    +0.147 C 
ATOM      8  C   UNL     1      -0.242  -2.329  -2.590  0.00  0.00    +0.150 C 
ATOM      9  C   UNL     1       0.588  -0.994  -2.586  0.00  0.00    +0.040 C 
ATOM     10  C   UNL     1      -0.290   0.184  -2.158  0.00  0.00    +0.014 C 
ATOM     11  C   UNL     1       1.920  -1.131  -1.872  0.00  0.00    -0.019 C 
ATOM     12  C   UNL     1       2.767  -0.253  -1.288  0.00  0.00    -0.033 C 
ATOM     13  C   UNL     1       4.011  -0.821  -0.628  0.00  0.00    +0.042 C 
ATOM     14  C   UNL     1       2.656   1.274  -1.282  0.00  0.00    +0.236 C 
ATOM     15  C   UNL     1       2.390   1.914   0.128  0.00  0.00    +0.186 C 
ATOM     16  C   UNL     1       2.377   3.424   0.070  0.00  0.00    +0.008 C 
ATOM     17  C   UNL     1       1.446   4.299   0.475  0.00  0.00    -0.001 C 
ATOM     18  C   UNL     1       0.166   4.033   1.081  0.00  0.00    +0.008 C 
ATOM     19  C   UNL     1      -0.957   3.672   0.435  0.00  0.00    +0.011 C 
ATOM     20  C   UNL     1      -1.134   3.422  -1.026  0.00  0.00    +0.049 C 
ATOM     21  C   UNL     1      -2.192   3.695   1.248  0.00  0.00    +0.216 C 
ATOM     22  N   UNL     1      -2.666   2.960   2.184  0.00  0.00    -0.209 NA
ATOM     23  C   UNL     1      -1.996   1.802   2.495  0.00  0.00    +0.118 C 
ATOM     24  C   UNL     1      -1.118   1.742   3.499  0.00  0.00    +0.086 C 
ATOM     25  C   UNL     1      -0.473   0.483   3.893  0.00  0.00    +0.223 C 
ATOM     26  O   UNL     1       0.520   0.524   4.610  0.00  0.00    -0.284 OA
ATOM     27  C   UNL     1      -2.354   0.542   1.764  0.00  0.00    +0.211 C 
ATOM     28  O   UNL     1      -2.947   0.576   0.689  0.00  0.00    -0.285 OA
ENDROOT
BRANCH   7  29
ATOM     29  O   UNL     1       0.599  -3.401  -0.477  0.00  0.00    -0.377 OA
ATOM     30  C   UNL     1       1.145  -4.667  -0.821  0.00  0.00    +0.194 C 
ENDBRANCH   7  29
BRANCH   8  31
ATOM     31  O   UNL     1       0.397  -3.282  -3.466  0.00  0.00    -0.389 OA
ATOM     32  H   UNL     1       0.607  -2.824  -4.299  0.00  0.00    +0.210 HD
ENDBRANCH   8  31
BRANCH  21  33
ATOM     33  O   UNL     1      -2.915   4.777   0.913  0.00  0.00    -0.492 OA
ATOM     34  H   UNL     1      -3.724   4.759   1.449  0.00  0.00    +0.294 HD
ENDBRANCH  21  33
BRANCH   1  36
ATOM     35  C   UNL     1      -0.369  -2.015   5.341  0.00  0.00    +0.277 C 
ATOM     36  O   UNL     1      -0.787  -2.021   3.981  0.00  0.00    -0.491 OA
ENDBRANCH   1  36
BRANCH  15  37
ATOM     37  O   UNL     1       3.459   1.587   1.035  0.00  0.00    -0.372 OA
ATOM     38  C   UNL     1       2.999   1.357   2.362  0.00  0.00    +0.195 C 
ENDBRANCH  15  37
BRANCH  14  39
ATOM     39  O   UNL     1       3.898   1.771  -1.846  0.00  0.00    -0.440 OA
BRANCH  39  40
ATOM     40  C   UNL     1       3.800   2.652  -2.859  0.00  0.00    +0.398 C 
ATOM     41  N   UNL     1       5.037   3.005  -3.272  0.00  0.00    -0.295 N 
ATOM     42  O   UNL     1       2.778   3.097  -3.354  0.00  0.00    -0.227 OA
ATOM     43  H   UNL     1       5.845   2.603  -2.823  0.00  0.00    +0.148 HD
ATOM     44  H   UNL     1       5.136   3.662  -4.031  0.00  0.00    +0.148 HD
ENDBRANCH  39  40
ENDBRANCH  14  39
TORSDOF 7
