REMARK  Name = 
REMARK  14 active torsions:
REMARK  status: ('A' for Active; 'I' for Inactive)
REMARK    1  A    between atoms: C_1  and  O_2
REMARK    2  A    between atoms: O_2  and  C_3
REMARK    3  A    between atoms: C_6  and  C_7
REMARK    4  A    between atoms: C_9  and  O_10
REMARK    5  A    between atoms: O_10  and  C_11
REMARK    6  A    between atoms: C_12  and  O_13
REMARK    7  A    between atoms: C_14  and  C_15
REMARK    8  A    between atoms: C_17  and  C_18
REMARK    9  A    between atoms: C_19  and  O_20
REMARK   10  A    between atoms: O_20  and  C_21
REMARK   11  A    between atoms: C_21  and  O_23
REMARK   12  A    between atoms: C_24  and  O_25
REMARK   13  A    between atoms: O_25  and  C_26
REMARK   14  A    between atoms: C_30  and  C_31
REMARK                            x       y       z     vdW  Elec       q    Type
REMARK                         _______ _______ _______ _____ _____    ______ ____
ROOT
ATOM      1  C   UNL     1      -3.123  -0.913   1.648  0.00  0.00    +0.173 C 
ATOM      2  C   UNL     1      -2.532  -1.877   0.918  0.00  0.00    +0.047 C 
ATOM      3  C   UNL     1      -3.155  -2.451  -0.338  0.00  0.00    +0.046 C 
ATOM      4  C   UNL     1      -2.280  -2.441  -1.611  0.00  0.00    -0.007 C 
ATOM      5  C   UNL     1      -3.099  -2.939  -2.808  0.00  0.00    +0.008 C 
ATOM      6  C   UNL     1      -1.534  -1.117  -1.911  0.00  0.00    +0.037 C 
ATOM      7  C   UNL     1      -2.322   0.204  -1.900  0.00  0.00    +0.147 C 
ATOM      8  C   UNL     1      -1.455   1.464  -2.251  0.00  0.00    +0.150 C 
ATOM      9  C   UNL     1      -0.506   2.062  -1.159  0.00  0.00    +0.040 C 
ATOM     10  C   UNL     1      -1.240   2.344   0.151  0.00  0.00    +0.014 C 
ATOM     11  C   UNL     1       0.750   1.253  -0.880  0.00  0.00    -0.019 C 
ATOM     12  C   UNL     1       2.042   1.625  -1.026  0.00  0.00    -0.033 C 
ATOM     13  C   UNL     1       2.447   3.042  -1.364  0.00  0.00    +0.042 C 
ATOM     14  C   UNL     1       3.239   0.655  -0.875  0.00  0.00    +0.236 C 
ATOM     15  C   UNL     1       2.901  -0.879  -0.857  0.00  0.00    +0.186 C 
ATOM     16  C   UNL     1       4.124  -1.745  -0.710  0.00  0.00    +0.008 C 
ATOM     17  C   UNL     1       4.656  -2.387   0.340  0.00  0.00    -0.001 C 
ATOM     18  C   UNL     1       4.355  -2.409   1.753  0.00  0.00    +0.008 C 
ATOM     19  C   UNL     1       3.223  -2.552   2.468  0.00  0.00    +0.012 C 
ATOM     20  C   UNL     1       3.300  -2.707   3.967  0.00  0.00    +0.049 C 
ATOM     21  C   UNL     1       1.851  -2.678   1.876  0.00  0.00    +0.244 C 
ATOM     22  O   UNL     1       1.645  -3.392   0.911  0.00  0.00    -0.270 OA
ATOM     23  N   UNL     1       0.949  -1.857   2.530  0.00  0.00    -0.279 N 
ATOM     24  C   UNL     1      -0.405  -1.668   2.319  0.00  0.00    +0.085 C 
ATOM     25  C   UNL     1      -1.015  -0.705   3.022  0.00  0.00    +0.081 C 
ATOM     26  C   UNL     1      -2.436  -0.368   2.854  0.00  0.00    +0.222 C 
ATOM     27  O   UNL     1      -2.967   0.391   3.655  0.00  0.00    -0.284 OA
ATOM     28  C   UNL     1      -1.259  -2.497   1.401  0.00  0.00    +0.207 C 
ATOM     29  O   UNL     1      -0.994  -3.651   1.099  0.00  0.00    -0.286 OA
ATOM     30  H   UNL     1       1.357  -1.261   3.239  0.00  0.00    +0.155 HD
ENDROOT
BRANCH   7  31
ATOM     31  O   UNL     1      -3.378   0.060  -2.866  0.00  0.00    -0.377 OA
ATOM     32  C   UNL     1      -4.539   0.820  -2.560  0.00  0.00    +0.194 C 
ENDBRANCH   7  31
BRANCH   8  33
ATOM     33  O   UNL     1      -0.722   1.281  -3.472  0.00  0.00    -0.389 OA
ATOM     34  H   UNL     1       0.048   0.713  -3.287  0.00  0.00    +0.210 HD
ENDBRANCH   8  33
BRANCH  15  35
ATOM     35  O   UNL     1       2.260  -1.224  -2.104  0.00  0.00    -0.372 OA
ATOM     36  C   UNL     1       1.687  -2.527  -2.123  0.00  0.00    +0.195 C 
ENDBRANCH  15  35
BRANCH   1  38
ATOM     37  C   UNL     1      -5.329  -0.318   2.243  0.00  0.00    +0.277 C 
ATOM     38  O   UNL     1      -4.328  -0.365   1.229  0.00  0.00    -0.491 OA
ENDBRANCH   1  38
BRANCH  14  39
ATOM     39  O   UNL     1       4.130   0.939  -1.988  0.00  0.00    -0.439 OA
BRANCH  39  40
ATOM     40  C   UNL     1       5.453   1.057  -1.828  0.00  0.00    +0.381 C 
ATOM     41  N   UNL     1       6.184   0.801  -0.812  0.00  0.00    -0.233 NA
ATOM     42  H   UNL     1       5.628   0.419  -0.050  0.00  0.00    +0.193 HD
BRANCH  40  43
ATOM     43  O   UNL     1       6.039   1.518  -2.933  0.00  0.00    -0.466 OA
ATOM     44  H   UNL     1       6.988   1.566  -2.742  0.00  0.00    +0.297 HD
ENDBRANCH  40  43
ENDBRANCH  39  40
ENDBRANCH  14  39
TORSDOF 7
