REMARK  Name = 
REMARK  15 active torsions:
REMARK  status: ('A' for Active; 'I' for Inactive)
REMARK    1  A    between atoms: C_1  and  O_2
REMARK    2  A    between atoms: O_2  and  C_3
REMARK    3  A    between atoms: C_6  and  C_7
REMARK    4  A    between atoms: C_9  and  O_10
REMARK    5  A    between atoms: O_10  and  C_11
REMARK    6  A    between atoms: C_12  and  O_13
REMARK    7  A    between atoms: C_14  and  C_15
REMARK    8  A    between atoms: C_17  and  C_18
REMARK    9  A    between atoms: C_19  and  O_20
REMARK   10  A    between atoms: O_20  and  C_21
REMARK   11  A    between atoms: C_21  and  O_23
REMARK   12  A    between atoms: C_24  and  O_25
REMARK   13  A    between atoms: O_25  and  C_26
REMARK   14  A    between atoms: C_30  and  C_31
REMARK   15  A    between atoms: C_32  and  O_33
REMARK                            x       y       z     vdW  Elec       q    Type
REMARK                         _______ _______ _______ _____ _____    ______ ____
ROOT
ATOM      1  C   UNL     1      -1.308   3.005   1.235  0.00  0.00    +0.173 C 
ATOM      2  C   UNL     1       0.017   2.766   1.268  0.00  0.00    +0.047 C 
ATOM      3  C   UNL     1       0.785   2.507   2.555  0.00  0.00    +0.046 C 
ATOM      4  C   UNL     1       0.931   1.041   3.049  0.00  0.00    -0.007 C 
ATOM      5  C   UNL     1      -0.422   0.430   3.421  0.00  0.00    +0.008 C 
ATOM      6  C   UNL     1       1.718   0.172   2.044  0.00  0.00    +0.037 C 
ATOM      7  C   UNL     1       1.968  -1.288   2.486  0.00  0.00    +0.147 C 
ATOM      8  C   UNL     1       2.716  -2.152   1.415  0.00  0.00    +0.150 C 
ATOM      9  C   UNL     1       1.781  -2.938   0.433  0.00  0.00    +0.040 C 
ATOM     10  C   UNL     1       1.189  -4.146   1.162  0.00  0.00    +0.014 C 
ATOM     11  C   UNL     1       0.819  -1.989  -0.260  0.00  0.00    -0.019 C 
ATOM     12  C   UNL     1      -0.524  -1.931  -0.409  0.00  0.00    -0.033 C 
ATOM     13  C   UNL     1      -1.506  -3.001  -0.036  0.00  0.00    +0.042 C 
ATOM     14  C   UNL     1      -1.145  -0.632  -0.961  0.00  0.00    +0.236 C 
ATOM     15  C   UNL     1      -1.702  -0.675  -2.417  0.00  0.00    +0.186 C 
ATOM     16  C   UNL     1      -0.633  -1.079  -3.417  0.00  0.00    +0.008 C 
ATOM     17  C   UNL     1       0.485  -0.428  -3.785  0.00  0.00    -0.001 C 
ATOM     18  C   UNL     1       0.916   0.877  -3.341  0.00  0.00    +0.008 C 
ATOM     19  C   UNL     1       0.469   2.046  -3.832  0.00  0.00    +0.011 C 
ATOM     20  C   UNL     1      -0.521   2.254  -4.934  0.00  0.00    +0.049 C 
ATOM     21  C   UNL     1       1.091   3.274  -3.302  0.00  0.00    +0.216 C 
ATOM     22  N   UNL     1       1.006   3.929  -2.205  0.00  0.00    -0.209 NA
ATOM     23  C   UNL     1       0.187   3.459  -1.203  0.00  0.00    +0.118 C 
ATOM     24  C   UNL     1      -1.136   3.634  -1.220  0.00  0.00    +0.086 C 
ATOM     25  C   UNL     1      -1.990   3.308  -0.069  0.00  0.00    +0.223 C 
ATOM     26  O   UNL     1      -3.208   3.367  -0.202  0.00  0.00    -0.284 OA
ATOM     27  C   UNL     1       0.835   2.883   0.023  0.00  0.00    +0.211 C 
ATOM     28  O   UNL     1       2.019   2.557   0.006  0.00  0.00    -0.285 OA
ENDROOT
BRANCH   7  29
ATOM     29  O   UNL     1       2.766  -1.215   3.688  0.00  0.00    -0.377 OA
ATOM     30  C   UNL     1       2.533  -2.297   4.578  0.00  0.00    +0.194 C 
ENDBRANCH   7  29
BRANCH   8  31
ATOM     31  O   UNL     1       3.630  -1.346   0.654  0.00  0.00    -0.389 OA
ATOM     32  H   UNL     1       4.229  -1.945   0.179  0.00  0.00    +0.210 HD
ENDBRANCH   8  31
BRANCH  21  33
ATOM     33  O   UNL     1       1.918   3.782  -4.233  0.00  0.00    -0.492 OA
ATOM     34  H   UNL     1       2.343   4.560  -3.835  0.00  0.00    +0.294 HD
ENDBRANCH  21  33
BRANCH   1  36
ATOM     35  C   UNL     1      -3.140   3.826   2.534  0.00  0.00    +0.277 C 
ATOM     36  O   UNL     1      -2.024   2.951   2.426  0.00  0.00    -0.491 OA
ENDBRANCH   1  36
BRANCH  15  37
ATOM     37  O   UNL     1      -2.208   0.627  -2.764  0.00  0.00    -0.372 OA
ATOM     38  C   UNL     1      -3.318   0.560  -3.650  0.00  0.00    +0.195 C 
ENDBRANCH  15  37
BRANCH  14  39
ATOM     39  O   UNL     1      -2.028  -0.061   0.045  0.00  0.00    -0.439 OA
BRANCH  39  40
ATOM     40  C   UNL     1      -3.345  -0.283   0.094  0.00  0.00    +0.381 C 
ATOM     41  N   UNL     1      -4.022  -1.077  -0.645  0.00  0.00    -0.233 NA
ATOM     42  H   UNL     1      -5.005  -1.060  -0.376  0.00  0.00    +0.193 HD
BRANCH  40  43
ATOM     43  O   UNL     1      -3.907   0.428   1.073  0.00  0.00    -0.466 OA
ATOM     44  H   UNL     1      -4.869   0.368   1.055  0.00  0.00    +0.297 HD
ENDBRANCH  40  43
ENDBRANCH  39  40
ENDBRANCH  14  39
TORSDOF 8
