REMARK  Name = 
REMARK  14 active torsions:
REMARK  status: ('A' for Active; 'I' for Inactive)
REMARK    1  A    between atoms: C_1  and  O_2
REMARK    2  A    between atoms: O_2  and  C_3
REMARK    3  A    between atoms: C_6  and  C_7
REMARK    4  A    between atoms: C_9  and  O_10
REMARK    5  A    between atoms: O_10  and  C_11
REMARK    6  A    between atoms: C_12  and  O_13
REMARK    7  A    between atoms: C_14  and  C_15
REMARK    8  A    between atoms: C_17  and  C_18
REMARK    9  A    between atoms: C_19  and  O_20
REMARK   10  A    between atoms: O_20  and  C_21
REMARK   11  A    between atoms: C_24  and  O_25
REMARK   12  A    between atoms: O_25  and  C_26
REMARK   13  A    between atoms: C_30  and  C_31
REMARK   14  A    between atoms: C_37  and  O_38
REMARK                            x       y       z     vdW  Elec       q    Type
REMARK                         _______ _______ _______ _____ _____    ______ ____
ROOT
ATOM      1  C   UNL     1      -0.337   3.967   0.547  0.00  0.00    +0.168 C 
ATOM      2  C   UNL     1      -0.101   3.219   1.640  0.00  0.00    +0.047 C 
ATOM      3  C   UNL     1      -1.159   2.668   2.570  0.00  0.00    +0.046 C 
ATOM      4  C   UNL     1      -1.260   1.119   2.506  0.00  0.00    -0.007 C 
ATOM      5  C   UNL     1      -0.825   0.528   3.856  0.00  0.00    +0.008 C 
ATOM      6  C   UNL     1      -2.696   0.660   2.132  0.00  0.00    +0.037 C 
ATOM      7  C   UNL     1      -2.798  -0.711   1.408  0.00  0.00    +0.147 C 
ATOM      8  C   UNL     1      -2.362  -0.597  -0.081  0.00  0.00    +0.150 C 
ATOM      9  C   UNL     1      -2.159  -1.959  -0.805  0.00  0.00    +0.040 C 
ATOM     10  C   UNL     1      -3.392  -2.870  -0.696  0.00  0.00    +0.014 C 
ATOM     11  C   UNL     1      -1.860  -1.771  -2.282  0.00  0.00    -0.019 C 
ATOM     12  C   UNL     1      -0.713  -1.867  -2.985  0.00  0.00    -0.033 C 
ATOM     13  C   UNL     1      -0.807  -1.739  -4.496  0.00  0.00    +0.042 C 
ATOM     14  C   UNL     1       0.726  -2.112  -2.518  0.00  0.00    +0.236 C 
ATOM     15  C   UNL     1       1.333  -1.341  -1.286  0.00  0.00    +0.186 C 
ATOM     16  C   UNL     1       1.226  -2.039   0.053  0.00  0.00    +0.008 C 
ATOM     17  C   UNL     1       1.644  -1.623   1.260  0.00  0.00    -0.001 C 
ATOM     18  C   UNL     1       2.259  -0.363   1.596  0.00  0.00    +0.008 C 
ATOM     19  C   UNL     1       3.417   0.146   1.144  0.00  0.00    +0.013 C 
ATOM     20  C   UNL     1       4.425  -0.488   0.244  0.00  0.00    +0.049 C 
ATOM     21  C   UNL     1       3.771   1.509   1.631  0.00  0.00    +0.264 C 
ATOM     22  O   UNL     1       4.390   1.689   2.668  0.00  0.00    -0.268 OA
ATOM     23  N   UNL     1       3.451   2.476   0.715  0.00  0.00    -0.173 NA
ATOM     24  C   UNL     1       2.349   3.149   0.872  0.00  0.00    +0.107 C 
ATOM     25  C   UNL     1       2.011   4.187  -0.127  0.00  0.00    +0.078 C 
ATOM     26  C   UNL     1       0.732   4.560  -0.248  0.00  0.00    +0.161 C 
ATOM     27  C   UNL     1       1.324   2.967   1.989  0.00  0.00    +0.209 C 
ATOM     28  O   UNL     1       1.669   2.642   3.113  0.00  0.00    -0.285 OA
ENDROOT
BRANCH   7  29
ATOM     29  O   UNL     1      -2.037  -1.722   2.072  0.00  0.00    -0.377 OA
ATOM     30  C   UNL     1      -2.739  -2.319   3.158  0.00  0.00    +0.194 C 
ENDBRANCH   7  29
BRANCH   8  31
ATOM     31  O   UNL     1      -3.349   0.197  -0.768  0.00  0.00    -0.389 OA
ATOM     32  H   UNL     1      -2.974   0.394  -1.644  0.00  0.00    +0.210 HD
ENDBRANCH   8  31
BRANCH  26  33
ATOM     33  O   UNL     1       0.335   5.511  -1.164  0.00  0.00    -0.503 OA
ATOM     34  H   UNL     1       1.119   5.910  -1.576  0.00  0.00    +0.292 HD
ENDBRANCH  26  33
BRANCH   1  36
ATOM     35  C   UNL     1      -2.080   3.551  -0.929  0.00  0.00    +0.277 C 
ATOM     36  O   UNL     1      -1.632   4.307   0.195  0.00  0.00    -0.491 OA
ENDBRANCH   1  36
BRANCH  15  37
ATOM     37  O   UNL     1       0.823  -0.002  -1.178  0.00  0.00    -0.372 OA
ATOM     38  C   UNL     1       1.397   0.890  -2.124  0.00  0.00    +0.195 C 
ENDBRANCH  15  37
BRANCH  14  39
ATOM     39  O   UNL     1       0.904  -3.543  -2.435  0.00  0.00    -0.440 OA
BRANCH  39  40
ATOM     40  C   UNL     1       2.164  -3.986  -2.627  0.00  0.00    +0.398 C 
ATOM     41  N   UNL     1       2.201  -5.330  -2.508  0.00  0.00    -0.295 N 
ATOM     42  O   UNL     1       3.143  -3.301  -2.871  0.00  0.00    -0.227 OA
ATOM     43  H   UNL     1       1.357  -5.843  -2.306  0.00  0.00    +0.148 HD
ATOM     44  H   UNL     1       3.081  -5.812  -2.622  0.00  0.00    +0.148 HD
ENDBRANCH  39  40
ENDBRANCH  14  39
TORSDOF 7
