MODEL 1
REMARK minimizedAffinity -6.0376358
REMARK minimizedRMSD -1
REMARK  Name = 
REMARK  2 active torsions:
REMARK  status: ('A' for Active; 'I' for Inactive)
REMARK    1  A    between atoms: C_11  and  O_12
REMARK    2  A    between atoms: C_17  and  O_18
REMARK                            x       y       z     vdW  Elec       q    Type
REMARK                         _______ _______ _______ _____ _____    ______ ____
ROOT
ATOM      1  O   UNL     1      25.017 -31.475  -6.028  0.00  0.00    -0.297 OA
ATOM      2  C   UNL     1      26.247 -31.467  -5.996  0.00  0.00    +0.138 C 
ATOM      3  C   UNL     1      27.081 -30.787  -7.077  0.00  0.00    +0.075 C 
ATOM      4  C   UNL     1      26.417 -30.721  -8.451  0.00  0.00    +0.012 C 
ATOM      5  C   UNL     1      26.646 -31.977  -9.301  0.00  0.00    +0.027 C 
ATOM      6  C   UNL     1      26.009 -33.200  -8.716  0.00  0.00    -0.031 C 
ATOM      7  C   UNL     1      26.675 -34.304  -8.346  0.00  0.00    -0.028 C 
ATOM      8  C   UNL     1      25.988 -35.502  -7.744  0.00  0.00    +0.068 C 
ATOM      9  C   UNL     1      26.398 -35.772  -6.293  0.00  0.00    +0.236 C 
ATOM     10  O   UNL     1      26.075 -34.629  -5.496  0.00  0.00    -0.464 OA
ATOM     11  C   UNL     1      25.947 -34.853  -4.138  0.00  0.00    +0.290 C 
ATOM     12  C   UNL     1      25.942 -33.801  -3.279  0.00  0.00    +0.106 C 
ATOM     13  C   UNL     1      25.569 -34.114  -1.851  0.00  0.00    +0.197 C 
ATOM     14  O   UNL     1      25.612 -35.249  -1.384  0.00  0.00    -0.287 OA
ATOM     15  C   UNL     1      25.088 -32.992  -1.025  0.00  0.00    +0.098 C 
ATOM     16  C   UNL     1      25.191 -31.741  -1.476  0.00  0.00    +0.139 C 
ATOM     17  C   UNL     1      25.838 -31.419  -2.737  0.00  0.00    +0.087 C 
ATOM     18 CL   UNL     1      26.150 -29.730  -3.033  0.00  0.00    -0.079 Cl
ATOM     19  C   UNL     1      26.221 -32.382  -3.610  0.00  0.00    -0.001 C 
ATOM     20  C   UNL     1      27.053 -32.052  -4.835  0.00  0.00    +0.112 C 
ENDROOT
BRANCH  11  21
ATOM     21  O   UNL     1      25.751 -36.163  -3.730  0.00  0.00    -0.480 OA
ATOM     22  H   UNL     1      25.683 -36.190  -2.750  0.00  0.00    +0.295 HD
ENDBRANCH  11  21
BRANCH  16  23
ATOM     23  O   UNL     1      24.717 -30.699  -0.699  0.00  0.00    -0.505 OA
ATOM     24  H   UNL     1      24.854 -29.870  -1.196  0.00  0.00    +0.292 HD
ENDBRANCH  16  23
TORSDOF 2
ENDMDL
MODEL 2
REMARK minimizedAffinity -4.72431135
REMARK minimizedRMSD -1
REMARK  Name = 
REMARK  2 active torsions:
REMARK  status: ('A' for Active; 'I' for Inactive)
REMARK    1  A    between atoms: C_11  and  O_12
REMARK    2  A    between atoms: C_17  and  O_18
REMARK                            x       y       z     vdW  Elec       q    Type
REMARK                         _______ _______ _______ _____ _____    ______ ____
ROOT
ATOM      1  O   UNL     1      24.901 -31.924  -4.131  0.00  0.00    -0.297 OA
ATOM      2  C   UNL     1      26.114 -31.913  -3.924  0.00  0.00    +0.138 C 
ATOM      3  C   UNL     1      26.944 -30.639  -4.040  0.00  0.00    +0.075 C 
ATOM      4  C   UNL     1      26.393 -29.602  -5.019  0.00  0.00    +0.012 C 
ATOM      5  C   UNL     1      26.845 -29.829  -6.467  0.00  0.00    +0.027 C 
ATOM      6  C   UNL     1      26.317 -31.104  -7.049  0.00  0.00    -0.031 C 
ATOM      7  C   UNL     1      27.081 -32.111  -7.499  0.00  0.00    -0.028 C 
ATOM      8  C   UNL     1      26.500 -33.383  -8.058  0.00  0.00    +0.068 C 
ATOM      9  C   UNL     1      26.819 -34.620  -7.213  0.00  0.00    +0.236 C 
ATOM     10  O   UNL     1      26.292 -34.434  -5.896  0.00  0.00    -0.464 OA
ATOM     11  C   UNL     1      26.081 -35.584  -5.159  0.00  0.00    +0.290 C 
ATOM     12  C   UNL     1      25.875 -35.498  -3.820  0.00  0.00    +0.106 C 
ATOM     13  C   UNL     1      25.426 -36.766  -3.136  0.00  0.00    +0.197 C 
ATOM     14  O   UNL     1      25.570 -37.879  -3.635  0.00  0.00    -0.287 OA
ATOM     15  C   UNL     1      24.744 -36.620  -1.838  0.00  0.00    +0.098 C 
ATOM     16  C   UNL     1      24.729 -35.436  -1.223  0.00  0.00    +0.139 C 
ATOM     17  C   UNL     1      25.434 -34.277  -1.748  0.00  0.00    +0.087 C 
ATOM     18 CL   UNL     1      25.558 -32.905  -0.682  0.00  0.00    -0.079 Cl
ATOM     19  C   UNL     1      26.004 -34.284  -2.978  0.00  0.00    -0.001 C 
ATOM     20  C   UNL     1      26.887 -33.142  -3.445  0.00  0.00    +0.112 C 
ENDROOT
BRANCH  11  21
ATOM     21  O   UNL     1      26.015 -36.779  -5.860  0.00  0.00    -0.480 OA
ATOM     22  H   UNL     1      25.870 -37.516  -5.227  0.00  0.00    +0.295 HD
ENDBRANCH  11  21
BRANCH  16  23
ATOM     23  O   UNL     1      24.067 -35.307  -0.015  0.00  0.00    -0.505 OA
ATOM     24  H   UNL     1      24.142 -34.376   0.268  0.00  0.00    +0.292 HD
ENDBRANCH  16  23
TORSDOF 2
ENDMDL
MODEL 3
REMARK minimizedAffinity -4.38608885
REMARK minimizedRMSD -1
REMARK  Name = 
REMARK  2 active torsions:
REMARK  status: ('A' for Active; 'I' for Inactive)
REMARK    1  A    between atoms: C_11  and  O_12
REMARK    2  A    between atoms: C_17  and  O_18
REMARK                            x       y       z     vdW  Elec       q    Type
REMARK                         _______ _______ _______ _____ _____    ______ ____
ROOT
ATOM      1  O   UNL     1      24.827 -35.184  -5.131  0.00  0.00    -0.297 OA
ATOM      2  C   UNL     1      26.000 -35.307  -4.779  0.00  0.00    +0.138 C 
ATOM      3  C   UNL     1      26.501 -36.551  -4.052  0.00  0.00    +0.075 C 
ATOM      4  C   UNL     1      25.442 -37.278  -3.223  0.00  0.00    +0.012 C 
ATOM      5  C   UNL     1      25.284 -36.717  -1.805  0.00  0.00    +0.027 C 
ATOM      6  C   UNL     1      24.768 -35.311  -1.789  0.00  0.00    -0.031 C 
ATOM      7  C   UNL     1      25.423 -34.263  -1.268  0.00  0.00    -0.028 C 
ATOM      8  C   UNL     1      24.867 -32.863  -1.294  0.00  0.00    +0.068 C 
ATOM      9  C   UNL     1      25.693 -31.898  -2.148  0.00  0.00    +0.236 C 
ATOM     10  O   UNL     1      25.735 -32.383  -3.494  0.00  0.00    -0.464 OA
ATOM     11  C   UNL     1      26.028 -31.446  -4.467  0.00  0.00    +0.290 C 
ATOM     12  C   UNL     1      26.383 -31.857  -5.712  0.00  0.00    +0.106 C 
ATOM     13  C   UNL     1      26.457 -30.782  -6.768  0.00  0.00    +0.197 C 
ATOM     14  O   UNL     1      26.553 -29.587  -6.497  0.00  0.00    -0.287 OA
ATOM     15  C   UNL     1      26.358 -31.216  -8.172  0.00  0.00    +0.098 C 
ATOM     16  C   UNL     1      26.415 -32.514  -8.474  0.00  0.00    +0.139 C 
ATOM     17  C   UNL     1      26.653 -33.537  -7.467  0.00  0.00    +0.087 C 
ATOM     18 CL   UNL     1      26.993 -35.139  -8.064  0.00  0.00    -0.079 Cl
ATOM     19  C   UNL     1      26.658 -33.249  -6.143  0.00  0.00    -0.001 C 
ATOM     20  C   UNL     1      27.081 -34.279  -5.113  0.00  0.00    +0.112 C 
ENDROOT
BRANCH  11  21
ATOM     21  O   UNL     1      25.864 -30.112  -4.129  0.00  0.00    -0.480 OA
ATOM     22  H   UNL     1      26.108 -29.552  -4.898  0.00  0.00    +0.295 HD
ENDBRANCH  11  21
BRANCH  16  23
ATOM     23  O   UNL     1      26.300 -32.910  -9.794  0.00  0.00    -0.505 OA
ATOM     24  H   UNL     1      26.341 -33.885  -9.818  0.00  0.00    +0.292 HD
ENDBRANCH  16  23
TORSDOF 2
ENDMDL
MODEL 4
REMARK minimizedAffinity -4.05328178
REMARK minimizedRMSD -1
REMARK  Name = 
REMARK  2 active torsions:
REMARK  status: ('A' for Active; 'I' for Inactive)
REMARK    1  A    between atoms: C_11  and  O_12
REMARK    2  A    between atoms: C_17  and  O_18
REMARK                            x       y       z     vdW  Elec       q    Type
REMARK                         _______ _______ _______ _____ _____    ______ ____
ROOT
ATOM      1  O   UNL     1      24.954 -34.154  -5.048  0.00  0.00    -0.297 OA
ATOM      2  C   UNL     1      26.135 -34.406  -4.811  0.00  0.00    +0.138 C 
ATOM      3  C   UNL     1      26.789 -35.710  -5.255  0.00  0.00    +0.075 C 
ATOM      4  C   UNL     1      25.833 -36.896  -5.381  0.00  0.00    +0.012 C 
ATOM      5  C   UNL     1      25.616 -37.648  -4.062  0.00  0.00    +0.027 C 
ATOM      6  C   UNL     1      24.930 -36.816  -3.023  0.00  0.00    -0.031 C 
ATOM      7  C   UNL     1      25.455 -36.502  -1.829  0.00  0.00    -0.028 C 
ATOM      8  C   UNL     1      24.731 -35.644  -0.824  0.00  0.00    +0.068 C 
ATOM      9  C   UNL     1      25.427 -34.307  -0.553  0.00  0.00    +0.236 C 
ATOM     10  O   UNL     1      25.521 -33.573  -1.778  0.00  0.00    -0.464 OA
ATOM     11  C   UNL     1      25.690 -32.206  -1.654  0.00  0.00    +0.290 C 
ATOM     12  C   UNL     1      26.086 -31.477  -2.729  0.00  0.00    +0.106 C 
ATOM     13  C   UNL     1      26.022 -29.978  -2.570  0.00  0.00    +0.197 C 
ATOM     14  O   UNL     1      25.971 -29.424  -1.475  0.00  0.00    -0.287 OA
ATOM     15  C   UNL     1      25.969 -29.177  -3.806  0.00  0.00    +0.098 C 
ATOM     16  C   UNL     1      26.183 -29.759  -4.987  0.00  0.00    +0.139 C 
ATOM     17  C   UNL     1      26.550 -31.161  -5.108  0.00  0.00    +0.087 C 
ATOM     18 CL   UNL     1      27.081 -31.684  -6.683  0.00  0.00    -0.079 Cl
ATOM     19  C   UNL     1      26.528 -32.000  -4.044  0.00  0.00    -0.001 C 
ATOM     20  C   UNL     1      27.080 -33.410  -4.138  0.00  0.00    +0.112 C 
ENDROOT
BRANCH  11  21
ATOM     21  O   UNL     1      25.365 -31.639  -0.432  0.00  0.00    -0.480 OA
ATOM     22  H   UNL     1      25.535 -30.672  -0.470  0.00  0.00    +0.295 HD
ENDBRANCH  11  21
BRANCH  16  23
ATOM     23  O   UNL     1      26.110 -29.001  -6.141  0.00  0.00    -0.505 OA
ATOM     24  H   UNL     1      26.270 -29.594  -6.899  0.00  0.00    +0.292 HD
ENDBRANCH  16  23
TORSDOF 2
ENDMDL
MODEL 5
REMARK minimizedAffinity -3.75451016
REMARK minimizedRMSD -1
REMARK  Name = 
REMARK  2 active torsions:
REMARK  status: ('A' for Active; 'I' for Inactive)
REMARK    1  A    between atoms: C_11  and  O_12
REMARK    2  A    between atoms: C_17  and  O_18
REMARK                            x       y       z     vdW  Elec       q    Type
REMARK                         _______ _______ _______ _____ _____    ______ ____
ROOT
ATOM      1  O   UNL     1      24.762 -36.936  -5.437  0.00  0.00    -0.297 OA
ATOM      2  C   UNL     1      25.943 -37.129  -5.148  0.00  0.00    +0.138 C 
ATOM      3  C   UNL     1      26.375 -37.547  -3.746  0.00  0.00    +0.075 C 
ATOM      4  C   UNL     1      25.447 -37.081  -2.624  0.00  0.00    +0.012 C 
ATOM      5  C   UNL     1      25.762 -35.667  -2.119  0.00  0.00    +0.027 C 
ATOM      6  C   UNL     1      25.533 -34.613  -3.157  0.00  0.00    -0.031 C 
ATOM      7  C   UNL     1      26.481 -33.788  -3.629  0.00  0.00    -0.028 C 
ATOM      8  C   UNL     1      26.204 -32.755  -4.690  0.00  0.00    +0.068 C 
ATOM      9  C   UNL     1      26.947 -33.018  -6.003  0.00  0.00    +0.236 C 
ATOM     10  O   UNL     1      26.556 -34.295  -6.515  0.00  0.00    -0.464 OA
ATOM     11  C   UNL     1      26.757 -34.494  -7.868  0.00  0.00    +0.290 C 
ATOM     12  C   UNL     1      26.702 -35.750  -8.380  0.00  0.00    +0.106 C 
ATOM     13  C   UNL     1      26.701 -35.852  -9.885  0.00  0.00    +0.197 C 
ATOM     14  O   UNL     1      27.080 -34.940 -10.615  0.00  0.00    -0.287 OA
ATOM     15  C   UNL     1      26.170 -37.096 -10.470  0.00  0.00    +0.098 C 
ATOM     16  C   UNL     1      25.909 -38.143  -9.686  0.00  0.00    +0.139 C 
ATOM     17  C   UNL     1      26.203 -38.141  -8.262  0.00  0.00    +0.087 C 
ATOM     18 CL   UNL     1      26.080 -39.677  -7.449  0.00  0.00    -0.079 Cl
ATOM     19  C   UNL     1      26.598 -37.017  -7.616  0.00  0.00    -0.001 C 
ATOM     20  C   UNL     1      27.073 -37.060  -6.175  0.00  0.00    +0.112 C 
ENDROOT
BRANCH  11  21
ATOM     21  O   UNL     1      26.933 -33.364  -8.652  0.00  0.00    -0.480 OA
ATOM     22  H   UNL     1      27.072 -33.638  -9.585  0.00  0.00    +0.295 HD
ENDBRANCH  11  21
BRANCH  16  23
ATOM     23  O   UNL     1      25.391 -39.297 -10.245  0.00  0.00    -0.505 OA
ATOM     24  H   UNL     1      25.244 -39.938  -9.524  0.00  0.00    +0.292 HD
ENDBRANCH  16  23
TORSDOF 2
ENDMDL
MODEL 6
REMARK minimizedAffinity -3.50109172
REMARK minimizedRMSD -1
REMARK  Name = 
REMARK  2 active torsions:
REMARK  status: ('A' for Active; 'I' for Inactive)
REMARK    1  A    between atoms: C_11  and  O_12
REMARK    2  A    between atoms: C_17  and  O_18
REMARK                            x       y       z     vdW  Elec       q    Type
REMARK                         _______ _______ _______ _____ _____    ______ ____
ROOT
ATOM      1  O   UNL     1      24.892 -33.889  -4.925  0.00  0.00    -0.297 OA
ATOM      2  C   UNL     1      26.099 -34.037  -4.736  0.00  0.00    +0.138 C 
ATOM      3  C   UNL     1      26.811 -33.433  -3.530  0.00  0.00    +0.075 C 
ATOM      4  C   UNL     1      26.169 -32.160  -2.980  0.00  0.00    +0.012 C 
ATOM      5  C   UNL     1      26.639 -30.883  -3.687  0.00  0.00    +0.027 C 
ATOM      6  C   UNL     1      26.229 -30.829  -5.127  0.00  0.00    -0.031 C 
ATOM      7  C   UNL     1      27.081 -30.757  -6.161  0.00  0.00    -0.028 C 
ATOM      8  C   UNL     1      26.618 -30.725  -7.593  0.00  0.00    +0.068 C 
ATOM      9  C   UNL     1      27.047 -31.955  -8.398  0.00  0.00    +0.236 C 
ATOM     10  O   UNL     1      26.505 -33.128  -7.783  0.00  0.00    -0.464 OA
ATOM     11  C   UNL     1      26.398 -34.244  -8.593  0.00  0.00    +0.290 C 
ATOM     12  C   UNL     1      26.185 -35.463  -8.035  0.00  0.00    +0.106 C 
ATOM     13  C   UNL     1      25.852 -36.580  -8.993  0.00  0.00    +0.197 C 
ATOM     14  O   UNL     1      26.097 -36.522 -10.195  0.00  0.00    -0.287 OA
ATOM     15  C   UNL     1      25.159 -37.755  -8.435  0.00  0.00    +0.098 C 
ATOM     16  C   UNL     1      25.037 -37.890  -7.113  0.00  0.00    +0.139 C 
ATOM     17  C   UNL     1      25.635 -36.953  -6.176  0.00  0.00    +0.087 C 
ATOM     18 CL   UNL     1      25.634 -37.433  -4.501  0.00  0.00    -0.079 Cl
ATOM     19  C   UNL     1      26.203 -35.794  -6.589  0.00  0.00    -0.001 C 
ATOM     20  C   UNL     1      26.979 -34.910  -5.631  0.00  0.00    +0.112 C 
ENDROOT
BRANCH  11  21
ATOM     21  O   UNL     1      26.441 -34.035  -9.963  0.00  0.00    -0.480 OA
ATOM     22  H   UNL     1      26.362 -34.899 -10.423  0.00  0.00    +0.295 HD
ENDBRANCH  11  21
BRANCH  16  23
ATOM     23  O   UNL     1      24.366 -38.987  -6.603  0.00  0.00    -0.505 OA
ATOM     24  H   UNL     1      24.356 -38.905  -5.631  0.00  0.00    +0.292 HD
ENDBRANCH  16  23
TORSDOF 2
ENDMDL
MODEL 7
REMARK minimizedAffinity -3.07279563
REMARK minimizedRMSD -1
REMARK  Name = 
REMARK  2 active torsions:
REMARK  status: ('A' for Active; 'I' for Inactive)
REMARK    1  A    between atoms: C_11  and  O_12
REMARK    2  A    between atoms: C_17  and  O_18
REMARK                            x       y       z     vdW  Elec       q    Type
REMARK                         _______ _______ _______ _____ _____    ______ ____
ROOT
ATOM      1  O   UNL     1      25.035 -34.032  -8.024  0.00  0.00    -0.297 OA
ATOM      2  C   UNL     1      26.250 -34.219  -7.968  0.00  0.00    +0.138 C 
ATOM      3  C   UNL     1      27.055 -34.681  -9.178  0.00  0.00    +0.075 C 
ATOM      4  C   UNL     1      26.268 -35.508 -10.193  0.00  0.00    +0.012 C 
ATOM      5  C   UNL     1      26.223 -37.004  -9.861  0.00  0.00    +0.027 C 
ATOM      6  C   UNL     1      25.483 -37.297  -8.593  0.00  0.00    -0.031 C 
ATOM      7  C   UNL     1      26.018 -37.892  -7.516  0.00  0.00    -0.028 C 
ATOM      8  C   UNL     1      25.235 -38.148  -6.255  0.00  0.00    +0.068 C 
ATOM      9  C   UNL     1      25.751 -37.360  -5.048  0.00  0.00    +0.236 C 
ATOM     10  O   UNL     1      25.680 -35.961  -5.338  0.00  0.00    -0.464 OA
ATOM     11  C   UNL     1      25.665 -35.115  -4.245  0.00  0.00    +0.290 C 
ATOM     12  C   UNL     1      25.901 -33.788  -4.416  0.00  0.00    +0.106 C 
ATOM     13  C   UNL     1      25.638 -32.909  -3.219  0.00  0.00    +0.197 C 
ATOM     14  O   UNL     1      25.566 -33.347  -2.073  0.00  0.00    -0.287 OA
ATOM     15  C   UNL     1      25.412 -31.477  -3.478  0.00  0.00    +0.098 C 
ATOM     16  C   UNL     1      25.645 -30.974  -4.692  0.00  0.00    +0.139 C 
ATOM     17  C   UNL     1      26.196 -31.776  -5.773  0.00  0.00    +0.087 C 
ATOM     18 CL   UNL     1      26.714 -30.904  -7.190  0.00  0.00    -0.079 Cl
ATOM     19  C   UNL     1      26.344 -33.119  -5.663  0.00  0.00    -0.001 C 
ATOM     20  C   UNL     1      27.081 -33.921  -6.719  0.00  0.00    +0.112 C 
ENDROOT
BRANCH  11  21
ATOM     21  O   UNL     1      25.327 -35.671  -3.021  0.00  0.00    -0.480 OA
ATOM     22  H   UNL     1      25.358 -34.974  -2.330  0.00  0.00    +0.295 HD
ENDBRANCH  11  21
BRANCH  16  23
ATOM     23  O   UNL     1      25.409 -29.632  -4.927  0.00  0.00    -0.505 OA
ATOM     24  H   UNL     1      25.611 -29.454  -5.865  0.00  0.00    +0.292 HD
ENDBRANCH  16  23
TORSDOF 2
ENDMDL
