MODEL 1
REMARK minimizedAffinity -3.74808431
REMARK minimizedRMSD -1
REMARK  Name = 
REMARK  3 active torsions:
REMARK  status: ('A' for Active; 'I' for Inactive)
REMARK    1  A    between atoms: C_3  and  N_15
REMARK    2  A    between atoms: C_21  and  O_22
REMARK    3  A    between atoms: C_21  and  N_23
REMARK                            x       y       z     vdW  Elec       q    Type
REMARK                         _______ _______ _______ _____ _____    ______ ____
ROOT
ATOM      1  C   UNL     1      10.078   1.956  -4.201  0.00  0.00    +0.224 A 
ATOM      2  N   UNL     1      10.410   1.843  -5.493  0.00  0.00    -0.220 NA
ATOM      3  C   UNL     1      10.770   0.631  -5.983  0.00  0.00    +0.133 A 
ATOM      4  C   UNL     1      10.720  -0.491  -5.115  0.00  0.00    +0.051 A 
ATOM      5  C   UNL     1      10.923  -1.926  -5.289  0.00  0.00    -0.025 A 
ATOM      6  C   UNL     1      10.822  -2.605  -4.084  0.00  0.00    -0.004 A 
ATOM      7  S   UNL     1      10.404  -1.573  -2.792  0.00  0.00    -0.073 S 
ATOM      8  C   UNL     1      10.376  -0.207  -3.800  0.00  0.00    +0.114 A 
ATOM      9  N   UNL     1      10.053   0.990  -3.285  0.00  0.00    -0.228 NA
ATOM     10  C   UNL     1      11.016  -4.071  -3.831  0.00  0.00    +0.043 C 
ATOM     11  C   UNL     1      10.042  -4.930  -4.637  0.00  0.00    +0.005 C 
ATOM     12  C   UNL     1      10.384  -5.025  -6.125  0.00  0.00    +0.001 C 
ATOM     13  C   UNL     1      10.188  -3.730  -6.917  0.00  0.00    +0.005 C 
ATOM     14  C   UNL     1      11.199  -2.627  -6.592  0.00  0.00    +0.037 C 
ENDROOT
BRANCH   3  15
ATOM     15  N   UNL     1      11.192   0.556  -7.312  0.00  0.00    -0.310 N 
ATOM     16  C   UNL     1      12.190   1.576  -7.652  0.00  0.00    +0.107 C 
ATOM     17  C   UNL     1      12.805   1.271  -9.017  0.00  0.00    +0.023 C 
ATOM     18  C   UNL     1      11.727   1.053 -10.078  0.00  0.00    +0.039 C 
ATOM     19  C   UNL     1      10.759  -0.010  -9.602  0.00  0.00    +0.004 C 
ATOM     20  C   UNL     1      10.117   0.375  -8.285  0.00  0.00    +0.142 C 
ATOM     21  C   UNL     1      10.505  -1.148 -10.278  0.00  0.00    +0.175 C 
BRANCH  21  22
ATOM     22  N   UNL     1      10.993  -1.484 -11.490  0.00  0.00    -0.330 N 
ATOM     23  H   UNL     1      10.666  -2.354 -11.890  0.00  0.00    +0.145 HD
ATOM     24  H   UNL     1      11.566  -0.860 -12.035  0.00  0.00    +0.145 HD
ENDBRANCH  21  22
BRANCH  21  25
ATOM     25  O   UNL     1       9.689  -2.130  -9.784  0.00  0.00    -0.495 OA
ATOM     26  H   UNL     1       9.766  -2.126  -8.817  0.00  0.00    +0.293 HD
ENDBRANCH  21  25
ENDBRANCH   3  15
TORSDOF 3
ENDMDL
MODEL 2
REMARK minimizedAffinity -3.68837738
REMARK minimizedRMSD -1
REMARK  Name = 
REMARK  3 active torsions:
REMARK  status: ('A' for Active; 'I' for Inactive)
REMARK    1  A    between atoms: C_3  and  N_15
REMARK    2  A    between atoms: C_21  and  O_22
REMARK    3  A    between atoms: C_21  and  N_23
REMARK                            x       y       z     vdW  Elec       q    Type
REMARK                         _______ _______ _______ _____ _____    ______ ____
ROOT
ATOM      1  C   UNL     1      10.297   1.841  -3.435  0.00  0.00    +0.224 A 
ATOM      2  N   UNL     1      10.460   1.841  -4.764  0.00  0.00    -0.220 NA
ATOM      3  C   UNL     1      10.736   0.675  -5.399  0.00  0.00    +0.133 A 
ATOM      4  C   UNL     1      10.780  -0.518  -4.632  0.00  0.00    +0.051 A 
ATOM      5  C   UNL     1      10.937  -1.933  -4.955  0.00  0.00    -0.025 A 
ATOM      6  C   UNL     1      10.980  -2.715  -3.809  0.00  0.00    -0.004 A 
ATOM      7  S   UNL     1      10.745  -1.799  -2.390  0.00  0.00    -0.073 S 
ATOM      8  C   UNL     1      10.610  -0.350  -3.265  0.00  0.00    +0.114 A 
ATOM      9  N   UNL     1      10.373   0.799  -2.611  0.00  0.00    -0.228 NA
ATOM     10  C   UNL     1      11.182  -4.198  -3.712  0.00  0.00    +0.043 C 
ATOM     11  C   UNL     1      10.101  -4.980  -4.458  0.00  0.00    +0.005 C 
ATOM     12  C   UNL     1      10.249  -4.945  -5.980  0.00  0.00    +0.001 C 
ATOM     13  C   UNL     1       9.974  -3.585  -6.625  0.00  0.00    +0.005 C 
ATOM     14  C   UNL     1      11.035  -2.519  -6.338  0.00  0.00    +0.037 C 
ENDROOT
BRANCH   3  15
ATOM     15  N   UNL     1      10.985   0.716  -6.773  0.00  0.00    -0.310 N 
ATOM     16  C   UNL     1       9.931   0.073  -7.563  0.00  0.00    +0.107 C 
ATOM     17  C   UNL     1      10.122   0.390  -9.046  0.00  0.00    +0.023 C 
ATOM     18  C   UNL     1      11.546   0.076  -9.503  0.00  0.00    +0.039 C 
ATOM     19  C   UNL     1      12.534   0.787  -8.603  0.00  0.00    +0.004 C 
ATOM     20  C   UNL     1      12.355   0.381  -7.155  0.00  0.00    +0.142 C 
ATOM     21  C   UNL     1      13.455   1.665  -9.048  0.00  0.00    +0.175 C 
BRANCH  21  22
ATOM     22  N   UNL     1      13.696   1.986 -10.335  0.00  0.00    -0.330 N 
ATOM     23  H   UNL     1      14.460   2.626 -10.511  0.00  0.00    +0.145 HD
ATOM     24  H   UNL     1      13.226   1.535 -11.104  0.00  0.00    +0.145 HD
ENDBRANCH  21  22
BRANCH  21  25
ATOM     25  O   UNL     1      14.280   2.357  -8.203  0.00  0.00    -0.495 OA
ATOM     26  H   UNL     1      13.800   2.508  -7.373  0.00  0.00    +0.293 HD
ENDBRANCH  21  25
ENDBRANCH   3  15
TORSDOF 3
ENDMDL
MODEL 3
REMARK minimizedAffinity -3.3882699
REMARK minimizedRMSD -1
REMARK  Name = 
REMARK  3 active torsions:
REMARK  status: ('A' for Active; 'I' for Inactive)
REMARK    1  A    between atoms: C_3  and  N_15
REMARK    2  A    between atoms: C_21  and  O_22
REMARK    3  A    between atoms: C_21  and  N_23
REMARK                            x       y       z     vdW  Elec       q    Type
REMARK                         _______ _______ _______ _____ _____    ______ ____
ROOT
ATOM      1  C   UNL     1      10.047   3.648  -6.228  0.00  0.00    +0.224 A 
ATOM      2  N   UNL     1      10.765   3.354  -7.318  0.00  0.00    -0.220 NA
ATOM      3  C   UNL     1      11.260   2.100  -7.469  0.00  0.00    +0.133 A 
ATOM      4  C   UNL     1      10.943   1.126  -6.487  0.00  0.00    +0.051 A 
ATOM      5  C   UNL     1      11.191  -0.306  -6.353  0.00  0.00    -0.025 A 
ATOM      6  C   UNL     1      10.720  -0.793  -5.142  0.00  0.00    -0.004 A 
ATOM      7  S   UNL     1       9.920   0.404  -4.228  0.00  0.00    -0.073 S 
ATOM      8  C   UNL     1      10.207   1.592  -5.406  0.00  0.00    +0.114 A 
ATOM      9  N   UNL     1       9.739   2.837  -5.219  0.00  0.00    -0.228 NA
ATOM     10  C   UNL     1      10.827  -2.190  -4.606  0.00  0.00    +0.043 C 
ATOM     11  C   UNL     1      10.153  -3.214  -5.519  0.00  0.00    +0.005 C 
ATOM     12  C   UNL     1      10.941  -3.521  -6.795  0.00  0.00    +0.001 C 
ATOM     13  C   UNL     1      11.000  -2.377  -7.809  0.00  0.00    +0.005 C 
ATOM     14  C   UNL     1      11.860  -1.187  -7.374  0.00  0.00    +0.037 C 
ENDROOT
BRANCH   3  15
ATOM     15  N   UNL     1      12.075   1.842  -8.573  0.00  0.00    -0.310 N 
ATOM     16  C   UNL     1      13.263   2.701  -8.619  0.00  0.00    +0.107 C 
ATOM     17  C   UNL     1      14.238   2.188  -9.679  0.00  0.00    +0.023 C 
ATOM     18  C   UNL     1      13.542   1.987 -11.024  0.00  0.00    +0.039 C 
ATOM     19  C   UNL     1      12.331   1.097 -10.839  0.00  0.00    +0.004 C 
ATOM     20  C   UNL     1      11.360   1.685  -9.837  0.00  0.00    +0.142 C 
ATOM     21  C   UNL     1      12.151  -0.068 -11.492  0.00  0.00    +0.175 C 
BRANCH  21  22
ATOM     22  N   UNL     1      12.953  -0.580 -12.449  0.00  0.00    -0.330 N 
ATOM     23  H   UNL     1      12.653  -1.443 -12.883  0.00  0.00    +0.145 HD
ATOM     24  H   UNL     1      13.754  -0.085 -12.806  0.00  0.00    +0.145 HD
ENDBRANCH  21  22
BRANCH  21  25
ATOM     25  O   UNL     1      11.089  -0.894 -11.243  0.00  0.00    -0.495 OA
ATOM     26  H   UNL     1      10.848  -0.800 -10.308  0.00  0.00    +0.293 HD
ENDBRANCH  21  25
ENDBRANCH   3  15
TORSDOF 3
ENDMDL
MODEL 4
REMARK minimizedAffinity -3.18496704
REMARK minimizedRMSD -1
REMARK  Name = 
REMARK  3 active torsions:
REMARK  status: ('A' for Active; 'I' for Inactive)
REMARK    1  A    between atoms: C_3  and  N_15
REMARK    2  A    between atoms: C_21  and  O_22
REMARK    3  A    between atoms: C_21  and  N_23
REMARK                            x       y       z     vdW  Elec       q    Type
REMARK                         _______ _______ _______ _____ _____    ______ ____
ROOT
ATOM      1  C   UNL     1       9.789   3.649  -6.060  0.00  0.00    +0.224 A 
ATOM      2  N   UNL     1      10.295   3.115  -7.178  0.00  0.00    -0.220 NA
ATOM      3  C   UNL     1      10.798   1.856  -7.143  0.00  0.00    +0.133 A 
ATOM      4  C   UNL     1      10.711   1.126  -5.929  0.00  0.00    +0.051 A 
ATOM      5  C   UNL     1      11.032  -0.243  -5.536  0.00  0.00    -0.025 A 
ATOM      6  C   UNL     1      10.820  -0.446  -4.181  0.00  0.00    -0.004 A 
ATOM      7  S   UNL     1      10.166   0.929  -3.413  0.00  0.00    -0.073 S 
ATOM      8  C   UNL     1      10.178   1.825  -4.855  0.00  0.00    +0.114 A 
ATOM      9  N   UNL     1       9.709   3.083  -4.858  0.00  0.00    -0.228 NA
ATOM     10  C   UNL     1      11.079  -1.690  -3.383  0.00  0.00    +0.043 C 
ATOM     11  C   UNL     1      10.281  -2.886  -3.901  0.00  0.00    +0.005 C 
ATOM     12  C   UNL     1      10.822  -3.474  -5.206  0.00  0.00    +0.001 C 
ATOM     13  C   UNL     1      10.643  -2.584  -6.438  0.00  0.00    +0.005 C 
ATOM     14  C   UNL     1      11.526  -1.332  -6.450  0.00  0.00    +0.037 C 
ENDROOT
BRANCH   3  15
ATOM     15  N   UNL     1      11.396   1.353  -8.301  0.00  0.00    -0.310 N 
ATOM     16  C   UNL     1      10.568   0.355  -8.984  0.00  0.00    +0.107 C 
ATOM     17  C   UNL     1      11.146   0.054 -10.367  0.00  0.00    +0.023 C 
ATOM     18  C   UNL     1      12.631  -0.295 -10.286  0.00  0.00    +0.039 C 
ATOM     19  C   UNL     1      13.369   0.804  -9.552  0.00  0.00    +0.004 C 
ATOM     20  C   UNL     1      12.810   1.011  -8.159  0.00  0.00    +0.142 C 
ATOM     21  C   UNL     1      14.395   1.500 -10.080  0.00  0.00    +0.175 C 
BRANCH  21  22
ATOM     22  N   UNL     1      14.970   1.287 -11.281  0.00  0.00    -0.330 N 
ATOM     23  H   UNL     1      15.769   1.864 -11.514  0.00  0.00    +0.145 HD
ATOM     24  H   UNL     1      14.705   0.523 -11.881  0.00  0.00    +0.145 HD
ENDBRANCH  21  22
BRANCH  21  25
ATOM     25  O   UNL     1      14.989   2.546  -9.426  0.00  0.00    -0.495 OA
ATOM     26  H   UNL     1      14.314   2.981  -8.880  0.00  0.00    +0.293 HD
ENDBRANCH  21  25
ENDBRANCH   3  15
TORSDOF 3
ENDMDL
MODEL 5
REMARK minimizedAffinity -2.52034783
REMARK minimizedRMSD -1
REMARK  Name = 
REMARK  3 active torsions:
REMARK  status: ('A' for Active; 'I' for Inactive)
REMARK    1  A    between atoms: C_3  and  N_15
REMARK    2  A    between atoms: C_21  and  O_22
REMARK    3  A    between atoms: C_21  and  N_23
REMARK                            x       y       z     vdW  Elec       q    Type
REMARK                         _______ _______ _______ _____ _____    ______ ____
ROOT
ATOM      1  C   UNL     1      10.956   0.436  -4.242  0.00  0.00    +0.224 A 
ATOM      2  N   UNL     1      11.120   1.107  -5.388  0.00  0.00    -0.220 NA
ATOM      3  C   UNL     1      11.211   0.419  -6.553  0.00  0.00    +0.133 A 
ATOM      4  C   UNL     1      11.064  -0.992  -6.518  0.00  0.00    +0.051 A 
ATOM      5  C   UNL     1      10.997  -2.036  -7.535  0.00  0.00    -0.025 A 
ATOM      6  C   UNL     1      10.913  -3.298  -6.964  0.00  0.00    -0.004 A 
ATOM      7  S   UNL     1      10.823  -3.236  -5.263  0.00  0.00    -0.073 S 
ATOM      8  C   UNL     1      10.920  -1.541  -5.251  0.00  0.00    +0.114 A 
ATOM      9  N   UNL     1      10.866  -0.882  -4.082  0.00  0.00    -0.228 NA
ATOM     10  C   UNL     1      10.879  -4.626  -7.663  0.00  0.00    +0.043 C 
ATOM     11  C   UNL     1       9.690  -4.748  -8.614  0.00  0.00    +0.005 C 
ATOM     12  C   UNL     1       9.845  -3.944  -9.907  0.00  0.00    +0.001 C 
ATOM     13  C   UNL     1       9.789  -2.425  -9.734  0.00  0.00    +0.005 C 
ATOM     14  C   UNL     1      11.004  -1.821  -9.025  0.00  0.00    +0.037 C 
ENDROOT
BRANCH   3  15
ATOM     15  N   UNL     1      11.466   1.137  -7.724  0.00  0.00    -0.310 N 
ATOM     16  C   UNL     1      10.287   1.257  -8.587  0.00  0.00    +0.107 C 
ATOM     17  C   UNL     1      10.555   2.272  -9.699  0.00  0.00    +0.023 C 
ATOM     18  C   UNL     1      11.857   1.960 -10.435  0.00  0.00    +0.039 C 
ATOM     19  C   UNL     1      12.989   1.850  -9.435  0.00  0.00    +0.004 C 
ATOM     20  C   UNL     1      12.711   0.779  -8.400  0.00  0.00    +0.142 C 
ATOM     21  C   UNL     1      14.100   2.611  -9.474  0.00  0.00    +0.175 C 
BRANCH  21  22
ATOM     22  N   UNL     1      14.417   3.513 -10.425  0.00  0.00    -0.330 N 
ATOM     23  H   UNL     1      15.316   3.970 -10.341  0.00  0.00    +0.145 HD
ATOM     24  H   UNL     1      13.852   3.656 -11.247  0.00  0.00    +0.145 HD
ENDBRANCH  21  22
BRANCH  21  25
ATOM     25  O   UNL     1      15.068   2.549  -8.509  0.00  0.00    -0.495 OA
ATOM     26  H   UNL     1      14.639   2.329  -7.667  0.00  0.00    +0.293 HD
ENDBRANCH  21  25
ENDBRANCH   3  15
TORSDOF 3
ENDMDL
MODEL 6
REMARK minimizedAffinity -2.27377796
REMARK minimizedRMSD -1
REMARK  Name = 
REMARK  3 active torsions:
REMARK  status: ('A' for Active; 'I' for Inactive)
REMARK    1  A    between atoms: C_3  and  N_15
REMARK    2  A    between atoms: C_21  and  O_22
REMARK    3  A    between atoms: C_21  and  N_23
REMARK                            x       y       z     vdW  Elec       q    Type
REMARK                         _______ _______ _______ _____ _____    ______ ____
ROOT
ATOM      1  C   UNL     1      10.910   0.891  -4.911  0.00  0.00    +0.224 A 
ATOM      2  N   UNL     1      11.210   1.393  -6.115  0.00  0.00    -0.220 NA
ATOM      3  C   UNL     1      11.353   0.552  -7.169  0.00  0.00    +0.133 A 
ATOM      4  C   UNL     1      11.116  -0.833  -6.965  0.00  0.00    +0.051 A 
ATOM      5  C   UNL     1      11.069  -1.999  -7.842  0.00  0.00    -0.025 A 
ATOM      6  C   UNL     1      10.860  -3.167  -7.123  0.00  0.00    -0.004 A 
ATOM      7  S   UNL     1      10.633  -2.873  -5.459  0.00  0.00    -0.073 S 
ATOM      8  C   UNL     1      10.834  -1.199  -5.657  0.00  0.00    +0.114 A 
ATOM      9  N   UNL     1      10.724  -0.388  -4.592  0.00  0.00    -0.228 NA
ATOM     10  C   UNL     1      10.801  -4.573  -7.645  0.00  0.00    +0.043 C 
ATOM     11  C   UNL     1       9.689  -4.761  -8.677  0.00  0.00    +0.005 C 
ATOM     12  C   UNL     1      10.001  -4.146 -10.042  0.00  0.00    +0.001 C 
ATOM     13  C   UNL     1      10.025  -2.617 -10.072  0.00  0.00    +0.005 C 
ATOM     14  C   UNL     1      11.213  -1.986  -9.340  0.00  0.00    +0.037 C 
ENDROOT
BRANCH   3  15
ATOM     15  N   UNL     1      11.749   1.092  -8.394  0.00  0.00    -0.310 N 
ATOM     16  C   UNL     1      12.947   1.931  -8.288  0.00  0.00    +0.107 C 
ATOM     17  C   UNL     1      13.479   2.261  -9.682  0.00  0.00    +0.023 C 
ATOM     18  C   UNL     1      12.380   2.827 -10.579  0.00  0.00    +0.039 C 
ATOM     19  C   UNL     1      11.201   1.878 -10.594  0.00  0.00    +0.004 C 
ATOM     20  C   UNL     1      10.660   1.644  -9.198  0.00  0.00    +0.142 C 
ATOM     21  C   UNL     1      10.702   1.320 -11.715  0.00  0.00    +0.175 C 
BRANCH  21  22
ATOM     22  N   UNL     1      11.103   1.570 -12.978  0.00  0.00    -0.330 N 
ATOM     23  H   UNL     1      10.592   1.109 -13.720  0.00  0.00    +0.145 HD
ATOM     24  H   UNL     1      11.800   2.263 -13.198  0.00  0.00    +0.145 HD
ENDBRANCH  21  22
BRANCH  21  25
ATOM     25  O   UNL     1       9.689   0.400 -11.691  0.00  0.00    -0.495 OA
ATOM     26  H   UNL     1       9.765  -0.109 -10.868  0.00  0.00    +0.293 HD
ENDBRANCH  21  25
ENDBRANCH   3  15
TORSDOF 3
ENDMDL
MODEL 7
REMARK minimizedAffinity -1.54400086
REMARK minimizedRMSD -1
REMARK  Name = 
REMARK  3 active torsions:
REMARK  status: ('A' for Active; 'I' for Inactive)
REMARK    1  A    between atoms: C_3  and  N_15
REMARK    2  A    between atoms: C_21  and  O_22
REMARK    3  A    between atoms: C_21  and  N_23
REMARK                            x       y       z     vdW  Elec       q    Type
REMARK                         _______ _______ _______ _____ _____    ______ ____
ROOT
ATOM      1  C   UNL     1      12.282   3.292  -7.929  0.00  0.00    +0.224 A 
ATOM      2  N   UNL     1      13.016   3.535  -9.021  0.00  0.00    -0.220 NA
ATOM      3  C   UNL     1      13.033   2.625 -10.026  0.00  0.00    +0.133 A 
ATOM      4  C   UNL     1      12.216   1.471  -9.907  0.00  0.00    +0.051 A 
ATOM      5  C   UNL     1      11.892   0.355 -10.790  0.00  0.00    -0.025 A 
ATOM      6  C   UNL     1      11.074  -0.572 -10.160  0.00  0.00    -0.004 A 
ATOM      7  S   UNL     1      10.627  -0.080  -8.590  0.00  0.00    -0.073 S 
ATOM      8  C   UNL     1      11.529   1.354  -8.707  0.00  0.00    +0.114 A 
ATOM      9  N   UNL     1      11.528   2.223  -7.684  0.00  0.00    -0.228 NA
ATOM     10  C   UNL     1      10.566  -1.874 -10.705  0.00  0.00    +0.043 C 
ATOM     11  C   UNL     1       9.730  -1.684 -11.970  0.00  0.00    +0.005 C 
ATOM     12  C   UNL     1      10.556  -1.356 -13.215  0.00  0.00    +0.001 C 
ATOM     13  C   UNL     1      11.206   0.029 -13.212  0.00  0.00    +0.005 C 
ATOM     14  C   UNL     1      12.355   0.190 -12.213  0.00  0.00    +0.037 C 
ENDROOT
BRANCH   3  15
ATOM     15  N   UNL     1      13.873   2.864 -11.116  0.00  0.00    -0.310 N 
ATOM     16  C   UNL     1      13.137   3.131 -12.356  0.00  0.00    +0.107 C 
ATOM     17  C   UNL     1      14.093   3.648 -13.430  0.00  0.00    +0.023 C 
ATOM     18  C   UNL     1      15.302   2.727 -13.591  0.00  0.00    +0.039 C 
ATOM     19  C   UNL     1      15.963   2.523 -12.244  0.00  0.00    +0.004 C 
ATOM     20  C   UNL     1      14.997   1.937 -11.236  0.00  0.00    +0.142 C 
ATOM     21  C   UNL     1      17.251   2.824 -11.989  0.00  0.00    +0.175 C 
BRANCH  21  22
ATOM     22  N   UNL     1      18.160   3.268 -12.881  0.00  0.00    -0.330 N 
ATOM     23  H   UNL     1      19.105   3.400 -12.545  0.00  0.00    +0.145 HD
ATOM     24  H   UNL     1      17.955   3.361 -13.863  0.00  0.00    +0.145 HD
ENDBRANCH  21  22
BRANCH  21  25
ATOM     25  O   UNL     1      17.801   2.709 -10.741  0.00  0.00    -0.495 OA
ATOM     26  H   UNL     1      17.104   2.886 -10.089  0.00  0.00    +0.293 HD
ENDBRANCH  21  25
ENDBRANCH   3  15
TORSDOF 3
ENDMDL
MODEL 8
REMARK minimizedAffinity -1.04745281
REMARK minimizedRMSD -1
REMARK  Name = 
REMARK  3 active torsions:
REMARK  status: ('A' for Active; 'I' for Inactive)
REMARK    1  A    between atoms: C_3  and  N_15
REMARK    2  A    between atoms: C_21  and  O_22
REMARK    3  A    between atoms: C_21  and  N_23
REMARK                            x       y       z     vdW  Elec       q    Type
REMARK                         _______ _______ _______ _____ _____    ______ ____
ROOT
ATOM      1  C   UNL     1      10.036   3.640  -8.836  0.00  0.00    +0.224 A 
ATOM      2  N   UNL     1      10.780   3.178  -9.848  0.00  0.00    -0.220 NA
ATOM      3  C   UNL     1      11.266   1.913  -9.790  0.00  0.00    +0.133 A 
ATOM      4  C   UNL     1      10.911   1.102  -8.681  0.00  0.00    +0.051 A 
ATOM      5  C   UNL     1      11.141  -0.294  -8.323  0.00  0.00    -0.025 A 
ATOM      6  C   UNL     1      10.631  -0.588  -7.066  0.00  0.00    -0.004 A 
ATOM      7  S   UNL     1       9.819   0.740  -6.369  0.00  0.00    -0.073 S 
ATOM      8  C   UNL     1      10.151   1.733  -7.706  0.00  0.00    +0.114 A 
ATOM      9  N   UNL     1       9.691   2.994  -7.724  0.00  0.00    -0.228 NA
ATOM     10  C   UNL     1      10.709  -1.887  -6.320  0.00  0.00    +0.043 C 
ATOM     11  C   UNL     1      10.050  -3.034  -7.085  0.00  0.00    +0.005 C 
ATOM     12  C   UNL     1      10.869  -3.537  -8.275  0.00  0.00    +0.001 C 
ATOM     13  C   UNL     1      10.968  -2.562  -9.450  0.00  0.00    +0.005 C 
ATOM     14  C   UNL     1      11.828  -1.325  -9.178  0.00  0.00    +0.037 C 
ENDROOT
BRANCH   3  15
ATOM     15  N   UNL     1      12.109   1.484 -10.818  0.00  0.00    -0.310 N 
ATOM     16  C   UNL     1      11.480   0.490 -11.694  0.00  0.00    +0.107 C 
ATOM     17  C   UNL     1      12.340   0.271 -12.938  0.00  0.00    +0.023 C 
ATOM     18  C   UNL     1      13.791  -0.031 -12.567  0.00  0.00    +0.039 C 
ATOM     19  C   UNL     1      14.316   1.058 -11.655  0.00  0.00    +0.004 C 
ATOM     20  C   UNL     1      13.476   1.183 -10.401  0.00  0.00    +0.142 C 
ATOM     21  C   UNL     1      15.398   1.811 -11.935  0.00  0.00    +0.175 C 
BRANCH  21  22
ATOM     22  N   UNL     1      16.215   1.672 -12.998  0.00  0.00    -0.330 N 
ATOM     23  H   UNL     1      17.020   2.284 -13.040  0.00  0.00    +0.145 HD
ATOM     24  H   UNL     1      16.111   0.927 -13.669  0.00  0.00    +0.145 HD
ENDBRANCH  21  22
BRANCH  21  25
ATOM     25  O   UNL     1      15.802   2.845 -11.134  0.00  0.00    -0.495 OA
ATOM     26  H   UNL     1      15.012   3.232 -10.723  0.00  0.00    +0.293 HD
ENDBRANCH  21  25
ENDBRANCH   3  15
TORSDOF 3
ENDMDL
MODEL 9
REMARK minimizedAffinity -0.887699068
REMARK minimizedRMSD -1
REMARK  Name = 
REMARK  3 active torsions:
REMARK  status: ('A' for Active; 'I' for Inactive)
REMARK    1  A    between atoms: C_3  and  N_15
REMARK    2  A    between atoms: C_21  and  O_22
REMARK    3  A    between atoms: C_21  and  N_23
REMARK                            x       y       z     vdW  Elec       q    Type
REMARK                         _______ _______ _______ _____ _____    ______ ____
ROOT
ATOM      1  C   UNL     1      11.585   3.366  -7.580  0.00  0.00    +0.224 A 
ATOM      2  N   UNL     1      11.934   3.027  -8.827  0.00  0.00    -0.220 NA
ATOM      3  C   UNL     1      11.976   1.716  -9.171  0.00  0.00    +0.133 A 
ATOM      4  C   UNL     1      11.584   0.751  -8.207  0.00  0.00    +0.051 A 
ATOM      5  C   UNL     1      11.400  -0.697  -8.229  0.00  0.00    -0.025 A 
ATOM      6  C   UNL     1      11.064  -1.186  -6.975  0.00  0.00    -0.004 A 
ATOM      7  S   UNL     1      10.880   0.056  -5.822  0.00  0.00    -0.073 S 
ATOM      8  C   UNL     1      11.269   1.260  -6.954  0.00  0.00    +0.114 A 
ATOM      9  N   UNL     1      11.257   2.549  -6.581  0.00  0.00    -0.228 NA
ATOM     10  C   UNL     1      10.843  -2.614  -6.571  0.00  0.00    +0.043 C 
ATOM     11  C   UNL     1       9.712  -3.271  -7.362  0.00  0.00    +0.005 C 
ATOM     12  C   UNL     1      10.085  -3.617  -8.805  0.00  0.00    +0.001 C 
ATOM     13  C   UNL     1      10.282  -2.414  -9.728  0.00  0.00    +0.005 C 
ATOM     14  C   UNL     1      11.538  -1.587  -9.435  0.00  0.00    +0.037 C 
ENDROOT
BRANCH   3  15
ATOM     15  N   UNL     1      12.424   1.385 -10.452  0.00  0.00    -0.310 N 
ATOM     16  C   UNL     1      11.371   0.805 -11.293  0.00  0.00    +0.107 C 
ATOM     17  C   UNL     1      11.847   0.724 -12.743  0.00  0.00    +0.023 C 
ATOM     18  C   UNL     1      13.203   0.028 -12.846  0.00  0.00    +0.039 C 
ATOM     19  C   UNL     1      14.193   0.711 -11.926  0.00  0.00    +0.004 C 
ATOM     20  C   UNL     1      13.713   0.698 -10.489  0.00  0.00    +0.142 C 
ATOM     21  C   UNL     1      15.353   1.255 -12.344  0.00  0.00    +0.175 C 
BRANCH  21  22
ATOM     22  N   UNL     1      15.849   1.212 -13.598  0.00  0.00    -0.330 N 
ATOM     23  H   UNL     1      16.762   1.625 -13.742  0.00  0.00    +0.145 HD
ATOM     24  H   UNL     1      15.400   0.701 -14.341  0.00  0.00    +0.145 HD
ENDBRANCH  21  22
BRANCH  21  25
ATOM     25  O   UNL     1      16.188   1.941 -11.505  0.00  0.00    -0.495 OA
ATOM     26  H   UNL     1      15.645   2.375 -10.829  0.00  0.00    +0.293 HD
ENDBRANCH  21  25
ENDBRANCH   3  15
TORSDOF 3
ENDMDL
