MODEL 1
REMARK minimizedAffinity -3.86643577
REMARK minimizedRMSD -1
REMARK  Name = 
REMARK  9 active torsions:
REMARK  status: ('A' for Active; 'I' for Inactive)
REMARK    1  A    between atoms: C_1  and  C_2
REMARK    2  A    between atoms: C_6  and  N_8
REMARK    3  A    between atoms: N_8  and  S_9
REMARK    4  A    between atoms: S_9  and  C_12
REMARK    5  A    between atoms: C_16  and  C_18
REMARK    6  A    between atoms: C_18  and  O_19
REMARK    7  A    between atoms: N_20  and  C_21
REMARK    8  A    between atoms: C_24  and  S_27
REMARK    9  A    between atoms: S_27  and  N_30
REMARK                            x       y       z     vdW  Elec       q    Type
REMARK                         _______ _______ _______ _____ _____    ______ ____
ROOT
ATOM      1  C   UNL     1     -28.315  39.206  -6.504  0.00  0.00    +0.220 C 
ATOM      2  N   UNL     1     -29.062  38.279  -7.000  0.00  0.00    -0.213 NA
ENDROOT
BRANCH   1   7
ATOM      3  C   UNL     1     -26.097  41.455  -8.524  0.00  0.00    +0.109 A 
ATOM      4  C   UNL     1     -26.695  42.704  -8.318  0.00  0.00    +0.029 A 
ATOM      5  C   UNL     1     -27.810  42.806  -7.484  0.00  0.00    +0.003 A 
ATOM      6  C   UNL     1     -28.331  41.664  -6.874  0.00  0.00    +0.013 A 
ATOM      7  C   UNL     1     -27.741  40.416  -7.108  0.00  0.00    +0.038 A 
ATOM      8  C   UNL     1     -26.620  40.302  -7.932  0.00  0.00    +0.042 A 
BRANCH   3   9
ATOM      9  S   UNL     1     -24.693  41.324  -9.610  0.00  0.00    +0.072 S 
ATOM     10  O   UNL     1     -25.124  41.701 -10.939  0.00  0.00    -0.150 OA
ATOM     11  O   UNL     1     -23.588  42.003  -8.964  0.00  0.00    -0.150 OA
BRANCH   9  12
ATOM     12  N   UNL     1     -24.325  39.678  -9.569  0.00  0.00    -0.216 N 
ATOM     13  H   UNL     1     -24.890  39.174  -8.888  0.00  0.00    +0.174 HD
BRANCH  12  19
ATOM     14  C   UNL     1     -25.820  37.164 -13.558  0.00  0.00    +0.044 C 
ATOM     15  C   UNL     1     -24.723  37.780 -12.740  0.00  0.00    -0.049 A 
ATOM     16  C   UNL     1     -23.409  37.803 -13.222  0.00  0.00    +0.003 A 
ATOM     17  C   UNL     1     -22.394  38.412 -12.483  0.00  0.00    +0.002 A 
ATOM     18  C   UNL     1     -22.687  39.017 -11.261  0.00  0.00    +0.024 A 
ATOM     19  C   UNL     1     -23.995  39.012 -10.781  0.00  0.00    +0.048 A 
ATOM     20  C   UNL     1     -25.012  38.399 -11.516  0.00  0.00    +0.027 A 
ENDBRANCH  12  19
ENDBRANCH   9  12
ENDBRANCH   3   9
ENDBRANCH   1   7
BRANCH   2  21
ATOM     21  C   UNL     1     -29.383  38.326  -8.364  0.00  0.00    +0.068 A 
ATOM     22  C   UNL     1     -30.454  39.112  -8.794  0.00  0.00    +0.030 A 
ATOM     23  C   UNL     1     -30.759  39.212 -10.154  0.00  0.00    +0.030 A 
ATOM     24  C   UNL     1     -29.980  38.516 -11.084  0.00  0.00    +0.106 A 
ATOM     25  C   UNL     1     -28.955  37.666 -10.661  0.00  0.00    +0.030 A 
ATOM     26  C   UNL     1     -28.661  37.574  -9.299  0.00  0.00    +0.030 A 
BRANCH  24  27
ATOM     27  S   UNL     1     -30.329  38.676 -12.823  0.00  0.00    +0.061 S 
ATOM     28  O   UNL     1     -31.755  38.880 -12.964  0.00  0.00    -0.153 OA
ATOM     29  O   UNL     1     -29.656  37.592 -13.505  0.00  0.00    -0.153 OA
BRANCH  27  30
ATOM     30  N   UNL     1     -29.549  40.125 -13.244  0.00  0.00    -0.172 NA
ATOM     31  C   UNL     1     -28.148  40.300 -12.765  0.00  0.00    +0.137 C 
ATOM     32  C   UNL     1     -27.508  41.499 -13.476  0.00  0.00    +0.177 C 
ATOM     33  O   UNL     1     -28.276  42.695 -13.263  0.00  0.00    -0.377 OA
ATOM     34  C   UNL     1     -29.601  42.531 -13.792  0.00  0.00    +0.177 C 
ATOM     35  C   UNL     1     -30.334  41.382 -13.089  0.00  0.00    +0.137 C 
ENDBRANCH  27  30
ENDBRANCH  24  27
ENDBRANCH   2  21
BRANCH   1  36
ATOM     36  O   UNL     1     -27.974  39.117  -5.210  0.00  0.00    -0.492 OA
ATOM     37  H   UNL     1     -28.376  38.303  -4.862  0.00  0.00    +0.294 HD
ENDBRANCH   1  36
TORSDOF 8
ENDMDL
MODEL 2
REMARK minimizedAffinity -3.7726717
REMARK minimizedRMSD -1
REMARK  Name = 
REMARK  9 active torsions:
REMARK  status: ('A' for Active; 'I' for Inactive)
REMARK    1  A    between atoms: C_1  and  C_2
REMARK    2  A    between atoms: C_6  and  N_8
REMARK    3  A    between atoms: N_8  and  S_9
REMARK    4  A    between atoms: S_9  and  C_12
REMARK    5  A    between atoms: C_16  and  C_18
REMARK    6  A    between atoms: C_18  and  O_19
REMARK    7  A    between atoms: N_20  and  C_21
REMARK    8  A    between atoms: C_24  and  S_27
REMARK    9  A    between atoms: S_27  and  N_30
REMARK                            x       y       z     vdW  Elec       q    Type
REMARK                         _______ _______ _______ _____ _____    ______ ____
ROOT
ATOM      1  C   UNL     1     -30.752  37.668 -10.111  0.00  0.00    +0.220 C 
ATOM      2  N   UNL     1     -31.293  36.498 -10.099  0.00  0.00    -0.213 NA
ENDROOT
BRANCH   1   7
ATOM      3  C   UNL     1     -27.544  39.204  -8.926  0.00  0.00    +0.109 A 
ATOM      4  C   UNL     1     -27.849  39.510  -7.594  0.00  0.00    +0.029 A 
ATOM      5  C   UNL     1     -29.104  39.178  -7.080  0.00  0.00    +0.003 A 
ATOM      6  C   UNL     1     -30.050  38.557  -7.898  0.00  0.00    +0.013 A 
ATOM      7  C   UNL     1     -29.742  38.279  -9.235  0.00  0.00    +0.038 A 
ATOM      8  C   UNL     1     -28.489  38.599  -9.759  0.00  0.00    +0.042 A 
BRANCH   3   9
ATOM      9  S   UNL     1     -25.954  39.655  -9.586  0.00  0.00    +0.072 S 
ATOM     10  O   UNL     1     -26.172  40.597 -10.663  0.00  0.00    -0.150 OA
ATOM     11  O   UNL     1     -25.104  39.992  -8.462  0.00  0.00    -0.150 OA
BRANCH   9  12
ATOM     12  N   UNL     1     -25.364  38.200 -10.204  0.00  0.00    -0.216 N 
ATOM     13  H   UNL     1     -26.065  37.462 -10.185  0.00  0.00    +0.174 HD
BRANCH  12  19
ATOM     14  C   UNL     1     -20.932  39.457 -12.005  0.00  0.00    +0.044 C 
ATOM     15  C   UNL     1     -22.288  38.841 -12.190  0.00  0.00    -0.049 A 
ATOM     16  C   UNL     1     -22.616  38.199 -13.389  0.00  0.00    +0.003 A 
ATOM     17  C   UNL     1     -23.861  37.589 -13.549  0.00  0.00    +0.002 A 
ATOM     18  C   UNL     1     -24.785  37.604 -12.504  0.00  0.00    +0.024 A 
ATOM     19  C   UNL     1     -24.461  38.229 -11.301  0.00  0.00    +0.048 A 
ATOM     20  C   UNL     1     -23.217  38.844 -11.141  0.00  0.00    +0.027 A 
ENDBRANCH  12  19
ENDBRANCH   9  12
ENDBRANCH   3   9
ENDBRANCH   1   7
BRANCH   2  21
ATOM     21  C   UNL     1     -30.959  35.609  -9.068  0.00  0.00    +0.068 A 
ATOM     22  C   UNL     1     -31.846  35.421  -8.004  0.00  0.00    +0.030 A 
ATOM     23  C   UNL     1     -31.555  34.503  -6.993  0.00  0.00    +0.030 A 
ATOM     24  C   UNL     1     -30.366  33.769  -7.053  0.00  0.00    +0.106 A 
ATOM     25  C   UNL     1     -29.436  34.002  -8.070  0.00  0.00    +0.030 A 
ATOM     26  C   UNL     1     -29.737  34.924  -9.075  0.00  0.00    +0.030 A 
BRANCH  24  27
ATOM     27  S   UNL     1     -30.010  32.560  -5.796  0.00  0.00    +0.061 S 
ATOM     28  O   UNL     1     -31.275  32.064  -5.298  0.00  0.00    -0.153 OA
ATOM     29  O   UNL     1     -29.027  33.134  -4.903  0.00  0.00    -0.153 OA
BRANCH  27  30
ATOM     30  N   UNL     1     -29.261  31.306  -6.663  0.00  0.00    -0.172 NA
ATOM     31  C   UNL     1     -30.156  30.284  -7.278  0.00  0.00    +0.137 C 
ATOM     32  C   UNL     1     -29.351  29.418  -8.254  0.00  0.00    +0.177 C 
ATOM     33  O   UNL     1     -28.238  28.793  -7.594  0.00  0.00    -0.377 OA
ATOM     34  C   UNL     1     -27.353  29.794  -7.067  0.00  0.00    +0.177 C 
ATOM     35  C   UNL     1     -28.069  30.671  -6.033  0.00  0.00    +0.137 C 
ENDBRANCH  27  30
ENDBRANCH  24  27
ENDBRANCH   2  21
BRANCH   1  36
ATOM     36  O   UNL     1     -31.122  38.525 -11.074  0.00  0.00    -0.492 OA
ATOM     37  H   UNL     1     -31.788  38.073 -11.619  0.00  0.00    +0.294 HD
ENDBRANCH   1  36
TORSDOF 8
ENDMDL
MODEL 3
REMARK minimizedAffinity -3.76969528
REMARK minimizedRMSD -1
REMARK  Name = 
REMARK  9 active torsions:
REMARK  status: ('A' for Active; 'I' for Inactive)
REMARK    1  A    between atoms: C_1  and  C_2
REMARK    2  A    between atoms: C_6  and  N_8
REMARK    3  A    between atoms: N_8  and  S_9
REMARK    4  A    between atoms: S_9  and  C_12
REMARK    5  A    between atoms: C_16  and  C_18
REMARK    6  A    between atoms: C_18  and  O_19
REMARK    7  A    between atoms: N_20  and  C_21
REMARK    8  A    between atoms: C_24  and  S_27
REMARK    9  A    between atoms: S_27  and  N_30
REMARK                            x       y       z     vdW  Elec       q    Type
REMARK                         _______ _______ _______ _____ _____    ______ ____
ROOT
ATOM      1  C   UNL     1     -25.358  27.131 -10.949  0.00  0.00    +0.220 C 
ATOM      2  N   UNL     1     -24.839  27.291  -9.779  0.00  0.00    -0.213 NA
ENDROOT
BRANCH   1   7
ATOM      3  C   UNL     1     -28.472  28.747 -12.271  0.00  0.00    +0.109 A 
ATOM      4  C   UNL     1     -29.320  27.644 -12.427  0.00  0.00    +0.029 A 
ATOM      5  C   UNL     1     -28.874  26.373 -12.063  0.00  0.00    +0.003 A 
ATOM      6  C   UNL     1     -27.582  26.205 -11.561  0.00  0.00    +0.013 A 
ATOM      7  C   UNL     1     -26.733  27.311 -11.434  0.00  0.00    +0.038 A 
ATOM      8  C   UNL     1     -27.170  28.589 -11.785  0.00  0.00    +0.042 A 
BRANCH   3   9
ATOM      9  S   UNL     1     -29.034  30.363 -12.762  0.00  0.00    +0.072 S 
ATOM     10  O   UNL     1     -28.183  30.819 -13.840  0.00  0.00    -0.150 OA
ATOM     11  O   UNL     1     -30.471  30.283 -12.929  0.00  0.00    -0.150 OA
BRANCH   9  12
ATOM     12  N   UNL     1     -28.770  31.300 -11.384  0.00  0.00    -0.216 N 
ATOM     13  H   UNL     1     -27.869  31.102 -10.951  0.00  0.00    +0.174 HD
BRANCH  12  19
ATOM     14  C   UNL     1     -30.322  35.193  -8.757  0.00  0.00    +0.044 C 
ATOM     15  C   UNL     1     -29.999  34.555 -10.076  0.00  0.00    -0.049 A 
ATOM     16  C   UNL     1     -30.044  35.308 -11.255  0.00  0.00    +0.003 A 
ATOM     17  C   UNL     1     -29.704  34.728 -12.478  0.00  0.00    +0.002 A 
ATOM     18  C   UNL     1     -29.301  33.394 -12.531  0.00  0.00    +0.024 A 
ATOM     19  C   UNL     1     -29.239  32.642 -11.359  0.00  0.00    +0.048 A 
ATOM     20  C   UNL     1     -29.583  33.218 -10.135  0.00  0.00    +0.027 A 
ENDBRANCH  12  19
ENDBRANCH   9  12
ENDBRANCH   3   9
ENDBRANCH   1   7
BRANCH   2  21
ATOM     21  C   UNL     1     -25.676  27.641  -8.710  0.00  0.00    +0.068 A 
ATOM     22  C   UNL     1     -25.985  28.985  -8.486  0.00  0.00    +0.030 A 
ATOM     23  C   UNL     1     -26.857  29.351  -7.459  0.00  0.00    +0.030 A 
ATOM     24  C   UNL     1     -27.420  28.358  -6.651  0.00  0.00    +0.106 A 
ATOM     25  C   UNL     1     -27.061  27.017  -6.816  0.00  0.00    +0.030 A 
ATOM     26  C   UNL     1     -26.187  26.664  -7.846  0.00  0.00    +0.030 A 
BRANCH  24  27
ATOM     27  S   UNL     1     -28.572  28.809  -5.371  0.00  0.00    +0.061 S 
ATOM     28  O   UNL     1     -27.809  29.053  -4.165  0.00  0.00    -0.153 OA
ATOM     29  O   UNL     1     -29.650  27.844  -5.393  0.00  0.00    -0.153 OA
BRANCH  27  30
ATOM     30  N   UNL     1     -29.190  30.297  -5.909  0.00  0.00    -0.172 NA
ATOM     31  C   UNL     1     -28.663  31.524  -5.246  0.00  0.00    +0.137 C 
ATOM     32  C   UNL     1     -29.092  32.762  -6.043  0.00  0.00    +0.177 C 
ATOM     33  O   UNL     1     -30.522  32.823  -6.173  0.00  0.00    -0.377 OA
ATOM     34  C   UNL     1     -31.003  31.665  -6.874  0.00  0.00    +0.177 C 
ATOM     35  C   UNL     1     -30.664  30.381  -6.108  0.00  0.00    +0.137 C 
ENDBRANCH  27  30
ENDBRANCH  24  27
ENDBRANCH   2  21
BRANCH   1  36
ATOM     36  O   UNL     1     -24.552  26.744 -11.949  0.00  0.00    -0.492 OA
ATOM     37  H   UNL     1     -23.661  26.639 -11.575  0.00  0.00    +0.294 HD
ENDBRANCH   1  36
TORSDOF 8
ENDMDL
MODEL 4
REMARK minimizedAffinity -3.54206634
REMARK minimizedRMSD -1
REMARK  Name = 
REMARK  9 active torsions:
REMARK  status: ('A' for Active; 'I' for Inactive)
REMARK    1  A    between atoms: C_1  and  C_2
REMARK    2  A    between atoms: C_6  and  N_8
REMARK    3  A    between atoms: N_8  and  S_9
REMARK    4  A    between atoms: S_9  and  C_12
REMARK    5  A    between atoms: C_16  and  C_18
REMARK    6  A    between atoms: C_18  and  O_19
REMARK    7  A    between atoms: N_20  and  C_21
REMARK    8  A    between atoms: C_24  and  S_27
REMARK    9  A    between atoms: S_27  and  N_30
REMARK                            x       y       z     vdW  Elec       q    Type
REMARK                         _______ _______ _______ _____ _____    ______ ____
ROOT
ATOM      1  C   UNL     1     -29.124  39.624 -11.850  0.00  0.00    +0.220 C 
ATOM      2  N   UNL     1     -30.123  39.267 -11.116  0.00  0.00    -0.213 NA
ENDROOT
BRANCH   1   7
ATOM      3  C   UNL     1     -25.644  38.355 -12.431  0.00  0.00    +0.109 A 
ATOM      4  C   UNL     1     -25.864  37.343 -13.373  0.00  0.00    +0.029 A 
ATOM      5  C   UNL     1     -27.157  37.103 -13.840  0.00  0.00    +0.003 A 
ATOM      6  C   UNL     1     -28.225  37.863 -13.356  0.00  0.00    +0.013 A 
ATOM      7  C   UNL     1     -27.997  38.855 -12.395  0.00  0.00    +0.038 A 
ATOM      8  C   UNL     1     -26.707  39.110 -11.926  0.00  0.00    +0.042 A 
BRANCH   3   9
ATOM      9  S   UNL     1     -23.998  38.638 -11.817  0.00  0.00    +0.072 S 
ATOM     10  O   UNL     1     -23.165  37.541 -12.260  0.00  0.00    -0.150 OA
ATOM     11  O   UNL     1     -23.654  40.010 -12.131  0.00  0.00    -0.150 OA
BRANCH   9  12
ATOM     12  N   UNL     1     -24.193  38.573 -10.142  0.00  0.00    -0.216 N 
ATOM     13  H   UNL     1     -23.367  38.207  -9.672  0.00  0.00    +0.174 HD
BRANCH  12  19
ATOM     14  C   UNL     1     -27.999  39.890  -7.271  0.00  0.00    +0.044 C 
ATOM     15  C   UNL     1     -26.790  40.254  -8.080  0.00  0.00    -0.049 A 
ATOM     16  C   UNL     1     -26.320  41.572  -8.097  0.00  0.00    +0.003 A 
ATOM     17  C   UNL     1     -25.171  41.906  -8.816  0.00  0.00    +0.002 A 
ATOM     18  C   UNL     1     -24.473  40.920  -9.513  0.00  0.00    +0.024 A 
ATOM     19  C   UNL     1     -24.926  39.602  -9.490  0.00  0.00    +0.048 A 
ATOM     20  C   UNL     1     -26.078  39.267  -8.775  0.00  0.00    +0.027 A 
ENDBRANCH  12  19
ENDBRANCH   9  12
ENDBRANCH   3   9
ENDBRANCH   1   7
BRANCH   2  21
ATOM     21  C   UNL     1     -30.192  37.941 -10.666  0.00  0.00    +0.068 A 
ATOM     22  C   UNL     1     -31.086  37.052 -11.269  0.00  0.00    +0.030 A 
ATOM     23  C   UNL     1     -31.134  35.715 -10.869  0.00  0.00    +0.030 A 
ATOM     24  C   UNL     1     -30.278  35.271  -9.856  0.00  0.00    +0.106 A 
ATOM     25  C   UNL     1     -29.434  36.166  -9.193  0.00  0.00    +0.030 A 
ATOM     26  C   UNL     1     -29.396  37.501  -9.601  0.00  0.00    +0.030 A 
BRANCH  24  27
ATOM     27  S   UNL     1     -30.296  33.557  -9.374  0.00  0.00    +0.061 S 
ATOM     28  O   UNL     1     -29.047  32.968  -9.809  0.00  0.00    -0.153 OA
ATOM     29  O   UNL     1     -31.569  33.002  -9.783  0.00  0.00    -0.153 OA
BRANCH  27  30
ATOM     30  N   UNL     1     -30.278  33.629  -7.677  0.00  0.00    -0.172 NA
ATOM     31  C   UNL     1     -29.457  32.605  -6.969  0.00  0.00    +0.137 C 
ATOM     32  C   UNL     1     -29.313  32.995  -5.492  0.00  0.00    +0.177 C 
ATOM     33  O   UNL     1     -30.599  33.143  -4.869  0.00  0.00    -0.377 OA
ATOM     34  C   UNL     1     -31.347  34.180  -5.522  0.00  0.00    +0.177 C 
ATOM     35  C   UNL     1     -31.587  33.837  -6.998  0.00  0.00    +0.137 C 
ENDBRANCH  27  30
ENDBRANCH  24  27
ENDBRANCH   2  21
BRANCH   1  36
ATOM     36  O   UNL     1     -29.046  40.908 -12.228  0.00  0.00    -0.492 OA
ATOM     37  H   UNL     1     -29.810  41.368 -11.841  0.00  0.00    +0.294 HD
ENDBRANCH   1  36
TORSDOF 8
ENDMDL
MODEL 5
REMARK minimizedAffinity -3.25318408
REMARK minimizedRMSD -1
REMARK  Name = 
REMARK  9 active torsions:
REMARK  status: ('A' for Active; 'I' for Inactive)
REMARK    1  A    between atoms: C_1  and  C_2
REMARK    2  A    between atoms: C_6  and  N_8
REMARK    3  A    between atoms: N_8  and  S_9
REMARK    4  A    between atoms: S_9  and  C_12
REMARK    5  A    between atoms: C_16  and  C_18
REMARK    6  A    between atoms: C_18  and  O_19
REMARK    7  A    between atoms: N_20  and  C_21
REMARK    8  A    between atoms: C_24  and  S_27
REMARK    9  A    between atoms: S_27  and  N_30
REMARK                            x       y       z     vdW  Elec       q    Type
REMARK                         _______ _______ _______ _____ _____    ______ ____
ROOT
ATOM      1  C   UNL     1     -28.065  29.268  -4.342  0.00  0.00    +0.220 C 
ATOM      2  N   UNL     1     -28.398  30.514  -4.348  0.00  0.00    -0.213 NA
ENDROOT
BRANCH   1   7
ATOM      3  C   UNL     1     -27.169  27.378  -7.453  0.00  0.00    +0.109 A 
ATOM      4  C   UNL     1     -28.050  26.292  -7.390  0.00  0.00    +0.029 A 
ATOM      5  C   UNL     1     -28.962  26.204  -6.337  0.00  0.00    +0.003 A 
ATOM      6  C   UNL     1     -28.982  27.188  -5.347  0.00  0.00    +0.013 A 
ATOM      7  C   UNL     1     -28.078  28.256  -5.407  0.00  0.00    +0.038 A 
ATOM      8  C   UNL     1     -27.167  28.360  -6.459  0.00  0.00    +0.042 A 
BRANCH   3   9
ATOM      9  S   UNL     1     -25.988  27.472  -8.781  0.00  0.00    +0.072 S 
ATOM     10  O   UNL     1     -25.656  28.866  -8.980  0.00  0.00    -0.150 OA
ATOM     11  O   UNL     1     -24.957  26.492  -8.508  0.00  0.00    -0.150 OA
BRANCH   9  12
ATOM     12  N   UNL     1     -26.852  26.890 -10.109  0.00  0.00    -0.216 N 
ATOM     13  H   UNL     1     -27.158  25.928  -9.978  0.00  0.00    +0.174 HD
BRANCH  12  19
ATOM     14  C   UNL     1     -31.300  29.013 -10.526  0.00  0.00    +0.044 C 
ATOM     15  C   UNL     1     -29.897  28.818 -11.021  0.00  0.00    -0.049 A 
ATOM     16  C   UNL     1     -29.410  29.582 -12.087  0.00  0.00    +0.003 A 
ATOM     17  C   UNL     1     -28.092  29.432 -12.523  0.00  0.00    +0.002 A 
ATOM     18  C   UNL     1     -27.245  28.526 -11.885  0.00  0.00    +0.024 A 
ATOM     19  C   UNL     1     -27.718  27.772 -10.812  0.00  0.00    +0.048 A 
ATOM     20  C   UNL     1     -29.037  27.917 -10.378  0.00  0.00    +0.027 A 
ENDBRANCH  12  19
ENDBRANCH   9  12
ENDBRANCH   3   9
ENDBRANCH   1   7
BRANCH   2  21
ATOM     21  C   UNL     1     -28.933  31.066  -5.520  0.00  0.00    +0.068 A 
ATOM     22  C   UNL     1     -28.487  32.316  -5.960  0.00  0.00    +0.030 A 
ATOM     23  C   UNL     1     -28.970  32.861  -7.152  0.00  0.00    +0.030 A 
ATOM     24  C   UNL     1     -29.906  32.144  -7.905  0.00  0.00    +0.106 A 
ATOM     25  C   UNL     1     -30.416  30.930  -7.437  0.00  0.00    +0.030 A 
ATOM     26  C   UNL     1     -29.927  30.396  -6.244  0.00  0.00    +0.030 A 
BRANCH  24  27
ATOM     27  S   UNL     1     -30.489  32.807  -9.451  0.00  0.00    +0.061 S 
ATOM     28  O   UNL     1     -31.844  32.334  -9.644  0.00  0.00    -0.153 OA
ATOM     29  O   UNL     1     -29.464  32.568 -10.443  0.00  0.00    -0.153 OA
BRANCH  27  30
ATOM     30  N   UNL     1     -30.556  34.479  -9.158  0.00  0.00    -0.172 NA
ATOM     31  C   UNL     1     -31.832  35.015  -8.604  0.00  0.00    +0.137 C 
ATOM     32  C   UNL     1     -31.618  36.457  -8.127  0.00  0.00    +0.177 C 
ATOM     33  O   UNL     1     -31.133  37.288  -9.194  0.00  0.00    -0.377 OA
ATOM     34  C   UNL     1     -29.870  36.794  -9.668  0.00  0.00    +0.177 C 
ATOM     35  C   UNL     1     -30.010  35.370 -10.219  0.00  0.00    +0.137 C 
ENDBRANCH  27  30
ENDBRANCH  24  27
ENDBRANCH   2  21
BRANCH   1  36
ATOM     36  O   UNL     1     -27.605  28.743  -3.197  0.00  0.00    -0.492 OA
ATOM     37  H   UNL     1     -27.619  29.451  -2.531  0.00  0.00    +0.294 HD
ENDBRANCH   1  36
TORSDOF 8
ENDMDL
MODEL 6
REMARK minimizedAffinity -3.17632818
REMARK minimizedRMSD -1
REMARK  Name = 
REMARK  9 active torsions:
REMARK  status: ('A' for Active; 'I' for Inactive)
REMARK    1  A    between atoms: C_1  and  C_2
REMARK    2  A    between atoms: C_6  and  N_8
REMARK    3  A    between atoms: N_8  and  S_9
REMARK    4  A    between atoms: S_9  and  C_12
REMARK    5  A    between atoms: C_16  and  C_18
REMARK    6  A    between atoms: C_18  and  O_19
REMARK    7  A    between atoms: N_20  and  C_21
REMARK    8  A    between atoms: C_24  and  S_27
REMARK    9  A    between atoms: S_27  and  N_30
REMARK                            x       y       z     vdW  Elec       q    Type
REMARK                         _______ _______ _______ _____ _____    ______ ____
ROOT
ATOM      1  C   UNL     1     -29.170  39.685 -11.896  0.00  0.00    +0.220 C 
ATOM      2  N   UNL     1     -30.041  39.546 -10.955  0.00  0.00    -0.213 NA
ENDROOT
BRANCH   1   7
ATOM      3  C   UNL     1     -26.029  37.976 -13.020  0.00  0.00    +0.109 A 
ATOM      4  C   UNL     1     -26.537  36.843 -13.665  0.00  0.00    +0.029 A 
ATOM      5  C   UNL     1     -27.918  36.662 -13.758  0.00  0.00    +0.003 A 
ATOM      6  C   UNL     1     -28.783  37.602 -13.196  0.00  0.00    +0.013 A 
ATOM      7  C   UNL     1     -28.263  38.719 -12.529  0.00  0.00    +0.038 A 
ATOM      8  C   UNL     1     -26.885  38.915 -12.437  0.00  0.00    +0.042 A 
BRANCH   3   9
ATOM      9  S   UNL     1     -24.267  38.189 -12.878  0.00  0.00    +0.072 S 
ATOM     10  O   UNL     1     -23.631  37.123 -13.623  0.00  0.00    -0.150 OA
ATOM     11  O   UNL     1     -23.979  39.578 -13.172  0.00  0.00    -0.150 OA
BRANCH   9  12
ATOM     12  N   UNL     1     -23.984  37.987 -11.227  0.00  0.00    -0.216 N 
ATOM     13  H   UNL     1     -23.046  37.638 -11.037  0.00  0.00    +0.174 HD
BRANCH  12  19
ATOM     14  C   UNL     1     -24.100  42.580  -9.394  0.00  0.00    +0.044 C 
ATOM     15  C   UNL     1     -24.608  41.168  -9.408  0.00  0.00    -0.049 A 
ATOM     16  C   UNL     1     -25.700  40.801  -8.613  0.00  0.00    +0.003 A 
ATOM     17  C   UNL     1     -26.201  39.499  -8.654  0.00  0.00    +0.002 A 
ATOM     18  C   UNL     1     -25.623  38.556  -9.503  0.00  0.00    +0.024 A 
ATOM     19  C   UNL     1     -24.545  38.916 -10.310  0.00  0.00    +0.048 A 
ATOM     20  C   UNL     1     -24.039  40.217 -10.266  0.00  0.00    +0.027 A 
ENDBRANCH  12  19
ENDBRANCH   9  12
ENDBRANCH   3   9
ENDBRANCH   1   7
BRANCH   2  21
ATOM     21  C   UNL     1     -30.168  38.298 -10.330  0.00  0.00    +0.068 A 
ATOM     22  C   UNL     1     -31.262  37.482 -10.633  0.00  0.00    +0.030 A 
ATOM     23  C   UNL     1     -31.380  36.214 -10.060  0.00  0.00    +0.030 A 
ATOM     24  C   UNL     1     -30.393  35.765  -9.176  0.00  0.00    +0.106 A 
ATOM     25  C   UNL     1     -29.335  36.601  -8.806  0.00  0.00    +0.030 A 
ATOM     26  C   UNL     1     -29.228  37.867  -9.386  0.00  0.00    +0.030 A 
BRANCH  24  27
ATOM     27  S   UNL     1     -30.509  34.131  -8.479  0.00  0.00    +0.061 S 
ATOM     28  O   UNL     1     -31.834  33.992  -7.913  0.00  0.00    -0.153 OA
ATOM     29  O   UNL     1     -29.324  33.914  -7.677  0.00  0.00    -0.153 OA
BRANCH  27  30
ATOM     30  N   UNL     1     -30.413  33.119  -9.840  0.00  0.00    -0.172 NA
ATOM     31  C   UNL     1     -30.702  31.672  -9.624  0.00  0.00    +0.137 C 
ATOM     32  C   UNL     1     -30.864  30.974 -10.980  0.00  0.00    +0.177 C 
ATOM     33  O   UNL     1     -29.692  31.147 -11.794  0.00  0.00    -0.377 OA
ATOM     34  C   UNL     1     -29.470  32.543 -12.047  0.00  0.00    +0.177 C 
ATOM     35  C   UNL     1     -29.239  33.308 -10.737  0.00  0.00    +0.137 C 
ENDBRANCH  27  30
ENDBRANCH  24  27
ENDBRANCH   2  21
BRANCH   1  36
ATOM     36  O   UNL     1     -29.025  40.900 -12.447  0.00  0.00    -0.492 OA
ATOM     37  H   UNL     1     -29.643  41.497 -11.993  0.00  0.00    +0.294 HD
ENDBRANCH   1  36
TORSDOF 8
ENDMDL
MODEL 7
REMARK minimizedAffinity -2.47736716
REMARK minimizedRMSD -1
REMARK  Name = 
REMARK  9 active torsions:
REMARK  status: ('A' for Active; 'I' for Inactive)
REMARK    1  A    between atoms: C_1  and  C_2
REMARK    2  A    between atoms: C_6  and  N_8
REMARK    3  A    between atoms: N_8  and  S_9
REMARK    4  A    between atoms: S_9  and  C_12
REMARK    5  A    between atoms: C_16  and  C_18
REMARK    6  A    between atoms: C_18  and  O_19
REMARK    7  A    between atoms: N_20  and  C_21
REMARK    8  A    between atoms: C_24  and  S_27
REMARK    9  A    between atoms: S_27  and  N_30
REMARK                            x       y       z     vdW  Elec       q    Type
REMARK                         _______ _______ _______ _____ _____    ______ ____
ROOT
ATOM      1  C   UNL     1     -30.473  38.433 -11.713  0.00  0.00    +0.220 C 
ATOM      2  N   UNL     1     -31.337  37.579 -11.281  0.00  0.00    -0.213 NA
ENDROOT
BRANCH   1   7
ATOM      3  C   UNL     1     -27.743  39.749  -9.505  0.00  0.00    +0.109 A 
ATOM      4  C   UNL     1     -26.599  39.421 -10.242  0.00  0.00    +0.029 A 
ATOM      5  C   UNL     1     -26.732  38.797 -11.483  0.00  0.00    +0.003 A 
ATOM      6  C   UNL     1     -28.002  38.489 -11.976  0.00  0.00    +0.013 A 
ATOM      7  C   UNL     1     -29.138  38.798 -11.218  0.00  0.00    +0.038 A 
ATOM      8  C   UNL     1     -29.019  39.430  -9.980  0.00  0.00    +0.042 A 
BRANCH   3   9
ATOM      9  S   UNL     1     -27.569  40.520  -7.911  0.00  0.00    +0.072 S 
ATOM     10  O   UNL     1     -27.095  39.516  -6.983  0.00  0.00    -0.150 OA
ATOM     11  O   UNL     1     -26.838  41.754  -8.110  0.00  0.00    -0.150 OA
BRANCH   9  12
ATOM     12  N   UNL     1     -29.149  40.965  -7.520  0.00  0.00    -0.216 N 
ATOM     13  H   UNL     1     -29.791  40.823  -8.298  0.00  0.00    +0.174 HD
BRANCH  12  19
ATOM     14  C   UNL     1     -31.847  38.174  -4.455  0.00  0.00    +0.044 C 
ATOM     15  C   UNL     1     -30.952  39.354  -4.697  0.00  0.00    -0.049 A 
ATOM     16  C   UNL     1     -30.504  40.134  -3.625  0.00  0.00    +0.003 A 
ATOM     17  C   UNL     1     -29.640  41.208  -3.843  0.00  0.00    +0.002 A 
ATOM     18  C   UNL     1     -29.203  41.501  -5.134  0.00  0.00    +0.024 A 
ATOM     19  C   UNL     1     -29.632  40.720  -6.206  0.00  0.00    +0.048 A 
ATOM     20  C   UNL     1     -30.502  39.649  -5.991  0.00  0.00    +0.027 A 
ENDBRANCH  12  19
ENDBRANCH   9  12
ENDBRANCH   3   9
ENDBRANCH   1   7
BRANCH   2  21
ATOM     21  C   UNL     1     -31.060  36.872 -10.103  0.00  0.00    +0.068 A 
ATOM     22  C   UNL     1     -31.741  37.196  -8.926  0.00  0.00    +0.030 A 
ATOM     23  C   UNL     1     -31.515  36.470  -7.754  0.00  0.00    +0.030 A 
ATOM     24  C   UNL     1     -30.599  35.414  -7.767  0.00  0.00    +0.106 A 
ATOM     25  C   UNL     1     -29.856  35.130  -8.916  0.00  0.00    +0.030 A 
ATOM     26  C   UNL     1     -30.089  35.863 -10.081  0.00  0.00    +0.030 A 
BRANCH  24  27
ATOM     27  S   UNL     1     -30.342  34.451  -6.292  0.00  0.00    +0.061 S 
ATOM     28  O   UNL     1     -31.634  34.251  -5.671  0.00  0.00    -0.153 OA
ATOM     29  O   UNL     1     -29.246  35.053  -5.563  0.00  0.00    -0.153 OA
BRANCH  27  30
ATOM     30  N   UNL     1     -29.812  32.953  -6.891  0.00  0.00    -0.172 NA
ATOM     31  C   UNL     1     -30.842  32.077  -7.521  0.00  0.00    +0.137 C 
ATOM     32  C   UNL     1     -30.152  30.925  -8.261  0.00  0.00    +0.177 C 
ATOM     33  O   UNL     1     -29.310  30.171  -7.375  0.00  0.00    -0.377 OA
ATOM     34  C   UNL     1     -28.284  31.016  -6.832  0.00  0.00    +0.177 C 
ATOM     35  C   UNL     1     -28.892  32.167  -6.022  0.00  0.00    +0.137 C 
ENDBRANCH  27  30
ENDBRANCH  24  27
ENDBRANCH   2  21
BRANCH   1  36
ATOM     36  O   UNL     1     -30.778  39.140 -12.812  0.00  0.00    -0.492 OA
ATOM     37  H   UNL     1     -31.666  38.862 -13.094  0.00  0.00    +0.294 HD
ENDBRANCH   1  36
TORSDOF 8
ENDMDL
MODEL 8
REMARK minimizedAffinity -1.98029423
REMARK minimizedRMSD -1
REMARK  Name = 
REMARK  9 active torsions:
REMARK  status: ('A' for Active; 'I' for Inactive)
REMARK    1  A    between atoms: C_1  and  C_2
REMARK    2  A    between atoms: C_6  and  N_8
REMARK    3  A    between atoms: N_8  and  S_9
REMARK    4  A    between atoms: S_9  and  C_12
REMARK    5  A    between atoms: C_16  and  C_18
REMARK    6  A    between atoms: C_18  and  O_19
REMARK    7  A    between atoms: N_20  and  C_21
REMARK    8  A    between atoms: C_24  and  S_27
REMARK    9  A    between atoms: S_27  and  N_30
REMARK                            x       y       z     vdW  Elec       q    Type
REMARK                         _______ _______ _______ _____ _____    ______ ____
ROOT
ATOM      1  C   UNL     1     -30.828  39.858 -11.622  0.00  0.00    +0.220 C 
ATOM      2  N   UNL     1     -31.734  38.941 -11.581  0.00  0.00    -0.213 NA
ENDROOT
BRANCH   1   7
ATOM      3  C   UNL     1     -27.649  40.157  -9.656  0.00  0.00    +0.109 A 
ATOM      4  C   UNL     1     -26.701  39.698 -10.578  0.00  0.00    +0.029 A 
ATOM      5  C   UNL     1     -27.108  39.322 -11.859  0.00  0.00    +0.003 A 
ATOM      6  C   UNL     1     -28.458  39.392 -12.209  0.00  0.00    +0.013 A 
ATOM      7  C   UNL     1     -29.401  39.827 -11.271  0.00  0.00    +0.038 A 
ATOM      8  C   UNL     1     -29.005  40.214  -9.990  0.00  0.00    +0.042 A 
BRANCH   3   9
ATOM      9  S   UNL     1     -27.130  40.608  -8.015  0.00  0.00    +0.072 S 
ATOM     10  O   UNL     1     -26.859  39.388  -7.285  0.00  0.00    -0.150 OA
ATOM     11  O   UNL     1     -26.117  41.634  -8.153  0.00  0.00    -0.150 OA
BRANCH   9  12
ATOM     12  N   UNL     1     -28.491  41.372  -7.375  0.00  0.00    -0.216 N 
ATOM     13  H   UNL     1     -29.108  41.732  -8.101  0.00  0.00    +0.174 HD
BRANCH  12  19
ATOM     14  C   UNL     1     -28.861  41.405  -2.442  0.00  0.00    +0.044 C 
ATOM     15  C   UNL     1     -29.277  40.861  -3.777  0.00  0.00    -0.049 A 
ATOM     16  C   UNL     1     -30.323  39.936  -3.870  0.00  0.00    +0.003 A 
ATOM     17  C   UNL     1     -30.739  39.460  -5.114  0.00  0.00    +0.002 A 
ATOM     18  C   UNL     1     -30.122  39.916  -6.278  0.00  0.00    +0.024 A 
ATOM     19  C   UNL     1     -29.089  40.848  -6.196  0.00  0.00    +0.048 A 
ATOM     20  C   UNL     1     -28.668  41.323  -4.952  0.00  0.00    +0.027 A 
ENDBRANCH  12  19
ENDBRANCH   9  12
ENDBRANCH   3   9
ENDBRANCH   1   7
BRANCH   2  21
ATOM     21  C   UNL     1     -31.399  37.680 -11.069  0.00  0.00    +0.068 A 
ATOM     22  C   UNL     1     -31.571  37.420  -9.706  0.00  0.00    +0.030 A 
ATOM     23  C   UNL     1     -31.291  36.155  -9.185  0.00  0.00    +0.030 A 
ATOM     24  C   UNL     1     -30.835  35.147 -10.040  0.00  0.00    +0.106 A 
ATOM     25  C   UNL     1     -30.586  35.415 -11.389  0.00  0.00    +0.030 A 
ATOM     26  C   UNL     1     -30.869  36.684 -11.898  0.00  0.00    +0.030 A 
BRANCH  24  27
ATOM     27  S   UNL     1     -30.522  33.517  -9.395  0.00  0.00    +0.061 S 
ATOM     28  O   UNL     1     -29.183  33.140  -9.794  0.00  0.00    -0.153 OA
ATOM     29  O   UNL     1     -31.663  32.691  -9.726  0.00  0.00    -0.153 OA
BRANCH  27  30
ATOM     30  N   UNL     1     -30.520  33.757  -7.714  0.00  0.00    -0.172 NA
ATOM     31  C   UNL     1     -29.499  33.005  -6.928  0.00  0.00    +0.137 C 
ATOM     32  C   UNL     1     -29.442  33.559  -5.499  0.00  0.00    +0.177 C 
ATOM     33  O   UNL     1     -30.730  33.490  -4.866  0.00  0.00    -0.377 OA
ATOM     34  C   UNL     1     -31.683  34.275  -5.600  0.00  0.00    +0.177 C 
ATOM     35  C   UNL     1     -31.843  33.747  -7.030  0.00  0.00    +0.137 C 
ENDBRANCH  27  30
ENDBRANCH  24  27
ENDBRANCH   2  21
BRANCH   1  36
ATOM     36  O   UNL     1     -31.179  41.074 -12.065  0.00  0.00    -0.492 OA
ATOM     37  H   UNL     1     -32.127  41.038 -12.280  0.00  0.00    +0.294 HD
ENDBRANCH   1  36
TORSDOF 8
ENDMDL
