REMARK  Name = 
REMARK  3 active torsions:
REMARK  status: ('A' for Active; 'I' for Inactive)
REMARK    1  A    between atoms: C_3  and  N_15
REMARK    2  A    between atoms: C_19  and  C_21
REMARK    3  A    between atoms: C_21  and  O_22
REMARK                            x       y       z     vdW  Elec       q    Type
REMARK                         _______ _______ _______ _____ _____    ______ ____
ROOT
ATOM      1  C   UNL     1       1.943  -1.905   1.894  0.00  0.00    +0.224 A 
ATOM      2  N   UNL     1       1.253  -0.758   1.928  0.00  0.00    -0.220 NA
ATOM      3  C   UNL     1       0.592  -0.354   0.817  0.00  0.00    +0.133 A 
ATOM      4  C   UNL     1       0.690  -1.142  -0.357  0.00  0.00    +0.051 A 
ATOM      5  C   UNL     1       0.205  -0.985  -1.727  0.00  0.00    -0.025 A 
ATOM      6  C   UNL     1       0.518  -2.095  -2.505  0.00  0.00    -0.004 A 
ATOM      7  S   UNL     1       1.459  -3.237  -1.647  0.00  0.00    -0.073 S 
ATOM      8  C   UNL     1       1.425  -2.309  -0.227  0.00  0.00    +0.114 A 
ATOM      9  N   UNL     1       2.067  -2.745   0.869  0.00  0.00    -0.228 NA
ATOM     10  C   UNL     1       0.180  -2.388  -3.943  0.00  0.00    +0.043 C 
ATOM     11  C   UNL     1      -1.164  -1.800  -4.365  0.00  0.00    +0.005 C 
ATOM     12  C   UNL     1      -1.119  -0.302  -4.668  0.00  0.00    +0.001 C 
ATOM     13  C   UNL     1      -0.304   0.556  -3.700  0.00  0.00    +0.005 C 
ATOM     14  C   UNL     1      -0.540   0.232  -2.225  0.00  0.00    +0.037 C 
ENDROOT
BRANCH   3  15
ATOM     15  N   UNL     1      -0.182   0.803   0.904  0.00  0.00    -0.314 N 
ATOM     16  C   UNL     1      -1.597   0.526   1.164  0.00  0.00    +0.106 C 
ATOM     17  C   UNL     1      -2.317   1.809   1.567  0.00  0.00    +0.020 C 
ATOM     18  C   UNL     1      -1.724   2.395   2.851  0.00  0.00    +0.016 C 
ATOM     19  C   UNL     1      -0.203   2.190   2.954  0.00  0.00    +0.091 C 
ATOM     20  C   UNL     1       0.441   1.941   1.589  0.00  0.00    +0.119 C 
BRANCH  19  21
ATOM     21  C   UNL     1       0.459   3.367   3.607  0.00  0.00    +0.184 C 
ATOM     22  N   UNL     1       0.460   4.588   3.212  0.00  0.00    -0.271 NA
ATOM     23  H   UNL     1      -0.081   4.690   2.347  0.00  0.00    +0.190 HD
BRANCH  21  24
ATOM     24  O   UNL     1       1.120   3.104   4.733  0.00  0.00    -0.496 OA
ATOM     25  H   UNL     1       1.494   3.946   5.045  0.00  0.00    +0.293 HD
ENDBRANCH  21  24
ENDBRANCH  19  21
ENDBRANCH   3  15
TORSDOF 3
