REMARK  Name = 
REMARK  2 active torsions:
REMARK  status: ('A' for Active; 'I' for Inactive)
REMARK    1  A    between atoms: C_3  and  N_15
REMARK    2  A    between atoms: C_19  and  C_21
REMARK                            x       y       z     vdW  Elec       q    Type
REMARK                         _______ _______ _______ _____ _____    ______ ____
ROOT
ATOM      1  C   UNL     1      -0.792   2.063  -3.713  0.00  0.00    +0.224 A 
ATOM      2  N   UNL     1      -0.820   2.185  -2.381  0.00  0.00    -0.220 NA
ATOM      3  C   UNL     1      -0.838   1.073  -1.602  0.00  0.00    +0.133 A 
ATOM      4  C   UNL     1      -0.766  -0.196  -2.244  0.00  0.00    +0.051 A 
ATOM      5  C   UNL     1      -0.666  -1.582  -1.786  0.00  0.00    -0.025 A 
ATOM      6  C   UNL     1      -0.669  -2.474  -2.849  0.00  0.00    -0.004 A 
ATOM      7  S   UNL     1      -0.729  -1.688  -4.357  0.00  0.00    -0.073 S 
ATOM      8  C   UNL     1      -0.758  -0.154  -3.633  0.00  0.00    +0.114 A 
ATOM      9  N   UNL     1      -0.777   0.936  -4.415  0.00  0.00    -0.228 NA
ATOM     10  C   UNL     1      -0.608  -3.972  -2.792  0.00  0.00    +0.043 C 
ATOM     11  C   UNL     1       0.666  -4.471  -2.110  0.00  0.00    +0.005 C 
ATOM     12  C   UNL     1       0.661  -4.308  -0.588  0.00  0.00    +0.001 C 
ATOM     13  C   UNL     1       0.716  -2.863  -0.089  0.00  0.00    +0.005 C 
ATOM     14  C   UNL     1      -0.554  -2.053  -0.362  0.00  0.00    +0.037 C 
ENDROOT
BRANCH   3  15
ATOM     15  N   UNL     1      -0.937   1.257  -0.213  0.00  0.00    -0.314 N 
ATOM     16  C   UNL     1      -2.263   0.910   0.314  0.00  0.00    +0.106 C 
ATOM     17  C   UNL     1      -2.197   0.838   1.838  0.00  0.00    +0.020 C 
ATOM     18  C   UNL     1      -1.664   2.136   2.440  0.00  0.00    +0.016 C 
ATOM     19  C   UNL     1      -0.350   2.597   1.798  0.00  0.00    +0.092 C 
ATOM     20  C   UNL     1      -0.405   2.551   0.267  0.00  0.00    +0.119 C 
BRANCH  19  21
ATOM     21  C   UNL     1       0.841   1.851   2.381  0.00  0.00    +0.215 C 
ATOM     22  O   UNL     1       1.407   2.215   3.408  0.00  0.00    -0.276 OA
ATOM     23  N   UNL     1       1.225   0.709   1.753  0.00  0.00    -0.329 N 
ATOM     24  H   UNL     1       0.776   0.407   0.894  0.00  0.00    +0.145 HD
ATOM     25  H   UNL     1       2.005   0.185   2.124  0.00  0.00    +0.145 HD
ENDBRANCH  19  21
ENDBRANCH   3  15
TORSDOF 2
