REMARK  Name = 
REMARK  3 active torsions:
REMARK  status: ('A' for Active; 'I' for Inactive)
REMARK    1  A    between atoms: C_3  and  N_15
REMARK    2  A    between atoms: C_21  and  O_22
REMARK    3  A    between atoms: C_21  and  N_23
REMARK                            x       y       z     vdW  Elec       q    Type
REMARK                         _______ _______ _______ _____ _____    ______ ____
ROOT
ATOM      1  C   UNL     1      -2.436  -1.988   1.915  0.00  0.00    +0.224 A 
ATOM      2  N   UNL     1      -2.170  -0.681   1.813  0.00  0.00    -0.220 NA
ATOM      3  C   UNL     1      -1.383  -0.230   0.803  0.00  0.00    +0.133 A 
ATOM      4  C   UNL     1      -0.944  -1.172  -0.170  0.00  0.00    +0.051 A 
ATOM      5  C   UNL     1      -0.230  -1.069  -1.446  0.00  0.00    -0.025 A 
ATOM      6  C   UNL     1      -0.034  -2.321  -2.015  0.00  0.00    -0.004 A 
ATOM      7  S   UNL     1      -0.710  -3.577  -1.083  0.00  0.00    -0.073 S 
ATOM      8  C   UNL     1      -1.297  -2.492   0.081  0.00  0.00    +0.114 A 
ATOM      9  N   UNL     1      -2.022  -2.960   1.109  0.00  0.00    -0.228 NA
ATOM     10  C   UNL     1       0.651  -2.655  -3.304  0.00  0.00    +0.043 C 
ATOM     11  C   UNL     1      -0.074  -2.067  -4.515  0.00  0.00    +0.005 C 
ATOM     12  C   UNL     1      -0.412  -0.572  -4.440  0.00  0.00    +0.001 C 
ATOM     13  C   UNL     1       0.539   0.242  -3.566  0.00  0.00    +0.005 C 
ATOM     14  C   UNL     1       0.182   0.241  -2.074  0.00  0.00    +0.037 C 
ENDROOT
BRANCH   3  15
ATOM     15  N   UNL     1      -1.066   1.124   0.784  0.00  0.00    -0.310 N 
ATOM     16  C   UNL     1      -2.061   2.058   1.302  0.00  0.00    +0.107 C 
ATOM     17  C   UNL     1      -1.932   2.240   2.816  0.00  0.00    +0.023 C 
ATOM     18  C   UNL     1      -0.521   1.957   3.331  0.00  0.00    +0.039 C 
ATOM     19  C   UNL     1       0.515   2.269   2.277  0.00  0.00    +0.004 C 
ATOM     20  C   UNL     1       0.341   1.478   0.998  0.00  0.00    +0.142 C 
ATOM     21  C   UNL     1       1.483   3.182   2.463  0.00  0.00    +0.175 C 
BRANCH  21  22
ATOM     22  N   UNL     1       2.458   3.524   1.592  0.00  0.00    -0.330 N 
ATOM     23  H   UNL     1       2.510   3.076   0.686  0.00  0.00    +0.145 HD
ATOM     24  H   UNL     1       2.938   4.407   1.697  0.00  0.00    +0.145 HD
ENDBRANCH  21  22
BRANCH  21  25
ATOM     25  O   UNL     1       1.547   3.864   3.647  0.00  0.00    -0.495 OA
ATOM     26  H   UNL     1       2.472   4.139   3.734  0.00  0.00    +0.293 HD
ENDBRANCH  21  25
ENDBRANCH   3  15
TORSDOF 3
