REMARK  Name = 
REMARK  3 active torsions:
REMARK  status: ('A' for Active; 'I' for Inactive)
REMARK    1  A    between atoms: C_3  and  N_15
REMARK    2  A    between atoms: C_21  and  O_22
REMARK    3  A    between atoms: C_21  and  N_23
REMARK                            x       y       z     vdW  Elec       q    Type
REMARK                         _______ _______ _______ _____ _____    ______ ____
ROOT
ATOM      1  C   UNL     1      -3.939  -0.907   0.544  0.00  0.00    +0.224 A 
ATOM      2  N   UNL     1      -2.760  -1.355   0.991  0.00  0.00    -0.220 NA
ATOM      3  C   UNL     1      -1.623  -0.731   0.596  0.00  0.00    +0.133 A 
ATOM      4  C   UNL     1      -1.729   0.416  -0.233  0.00  0.00    +0.051 A 
ATOM      5  C   UNL     1      -0.773   1.385  -0.763  0.00  0.00    -0.025 A 
ATOM      6  C   UNL     1      -1.392   2.326  -1.579  0.00  0.00    -0.004 A 
ATOM      7  S   UNL     1      -3.087   2.093  -1.647  0.00  0.00    -0.073 S 
ATOM      8  C   UNL     1      -3.020   0.746  -0.619  0.00  0.00    +0.114 A 
ATOM      9  N   UNL     1      -4.157   0.121  -0.272  0.00  0.00    -0.228 NA
ATOM     10  C   UNL     1      -0.816   3.468  -2.373  0.00  0.00    +0.043 C 
ATOM     11  C   UNL     1       0.711   3.534  -2.459  0.00  0.00    +0.005 C 
ATOM     12  C   UNL     1       1.359   2.204  -2.838  0.00  0.00    +0.001 C 
ATOM     13  C   UNL     1       1.601   1.248  -1.662  0.00  0.00    +0.005 C 
ATOM     14  C   UNL     1       0.695   1.425  -0.444  0.00  0.00    +0.037 C 
ENDROOT
BRANCH   3  15
ATOM     15  N   UNL     1      -0.407  -1.272   1.008  0.00  0.00    -0.310 N 
ATOM     16  C   UNL     1       0.193  -2.161   0.015  0.00  0.00    +0.107 C 
ATOM     17  C   UNL     1       1.358  -2.953   0.608  0.00  0.00    +0.023 C 
ATOM     18  C   UNL     1       2.063  -2.164   1.704  0.00  0.00    +0.039 C 
ATOM     19  C   UNL     1       1.098  -1.811   2.820  0.00  0.00    +0.004 C 
ATOM     20  C   UNL     1      -0.351  -1.683   2.405  0.00  0.00    +0.142 C 
ATOM     21  C   UNL     1       1.524  -1.641   4.083  0.00  0.00    +0.175 C 
BRANCH  21  22
ATOM     22  N   UNL     1       0.769  -1.351   5.166  0.00  0.00    -0.330 N 
ATOM     23  H   UNL     1      -0.233  -1.249   5.069  0.00  0.00    +0.145 HD
ATOM     24  H   UNL     1       1.125  -1.534   6.095  0.00  0.00    +0.145 HD
ENDBRANCH  21  22
BRANCH  21  25
ATOM     25  O   UNL     1       2.859  -1.760   4.363  0.00  0.00    -0.495 OA
ATOM     26  H   UNL     1       2.993  -1.245   5.173  0.00  0.00    +0.293 HD
ENDBRANCH  21  25
ENDBRANCH   3  15
TORSDOF 3
