REMARK  Name = 
REMARK  2 active torsions:
REMARK  status: ('A' for Active; 'I' for Inactive)
REMARK    1  A    between atoms: C_3  and  N_15
REMARK    2  A    between atoms: C_19  and  C_21
REMARK                            x       y       z     vdW  Elec       q    Type
REMARK                         _______ _______ _______ _____ _____    ______ ____
ROOT
ATOM      1  C   UNL     1      -3.874  -0.337  -0.316  0.00  0.00    +0.224 A 
ATOM      2  N   UNL     1      -2.875  -0.881   0.390  0.00  0.00    -0.220 NA
ATOM      3  C   UNL     1      -1.630  -0.355   0.283  0.00  0.00    +0.133 A 
ATOM      4  C   UNL     1      -1.438   0.786  -0.537  0.00  0.00    +0.051 A 
ATOM      5  C   UNL     1      -0.305   1.664  -0.818  0.00  0.00    -0.025 A 
ATOM      6  C   UNL     1      -0.633   2.646  -1.747  0.00  0.00    -0.004 A 
ATOM      7  S   UNL     1      -2.277   2.556  -2.216  0.00  0.00    -0.073 S 
ATOM      8  C   UNL     1      -2.569   1.219  -1.214  0.00  0.00    +0.114 A 
ATOM      9  N   UNL     1      -3.804   0.697  -1.151  0.00  0.00    -0.228 NA
ATOM     10  C   UNL     1       0.207   3.729  -2.370  0.00  0.00    +0.043 C 
ATOM     11  C   UNL     1       1.711   3.666  -2.092  0.00  0.00    +0.005 C 
ATOM     12  C   UNL     1       2.318   2.284  -2.325  0.00  0.00    +0.001 C 
ATOM     13  C   UNL     1       2.192   1.318  -1.140  0.00  0.00    +0.005 C 
ATOM     14  C   UNL     1       1.045   1.582  -0.164  0.00  0.00    +0.037 C 
ENDROOT
BRANCH   3  15
ATOM     15  N   UNL     1      -0.600  -0.994   0.969  0.00  0.00    -0.314 N 
ATOM     16  C   UNL     1       0.142  -1.950   0.145  0.00  0.00    +0.106 C 
ATOM     17  C   UNL     1       0.861  -2.991   1.006  0.00  0.00    +0.020 C 
ATOM     18  C   UNL     1       1.462  -2.371   2.265  0.00  0.00    +0.016 C 
ATOM     19  C   UNL     1       0.414  -1.611   3.100  0.00  0.00    +0.092 C 
ATOM     20  C   UNL     1      -0.899  -1.368   2.349  0.00  0.00    +0.119 C 
BRANCH  19  21
ATOM     21  C   UNL     1       0.117  -2.293   4.423  0.00  0.00    +0.215 C 
ATOM     22  O   UNL     1       0.212  -1.717   5.502  0.00  0.00    -0.276 OA
ATOM     23  N   UNL     1      -0.289  -3.592   4.375  0.00  0.00    -0.329 N 
ATOM     24  H   UNL     1      -0.493  -4.048   5.256  0.00  0.00    +0.145 HD
ATOM     25  H   UNL     1      -0.392  -4.124   3.523  0.00  0.00    +0.145 HD
ENDBRANCH  19  21
ENDBRANCH   3  15
TORSDOF 2
