REMARK  Name = 
REMARK  2 active torsions:
REMARK  status: ('A' for Active; 'I' for Inactive)
REMARK    1  A    between atoms: C_3  and  N_15
REMARK    2  A    between atoms: C_19  and  C_21
REMARK                            x       y       z     vdW  Elec       q    Type
REMARK                         _______ _______ _______ _____ _____    ______ ____
ROOT
ATOM      1  C   UNL     1       0.844  -1.620   2.800  0.00  0.00    +0.224 A 
ATOM      2  N   UNL     1       0.593  -0.363   2.413  0.00  0.00    -0.220 NA
ATOM      3  C   UNL     1       0.286  -0.117   1.115  0.00  0.00    +0.133 A 
ATOM      4  C   UNL     1       0.326  -1.201   0.197  0.00  0.00    +0.051 A 
ATOM      5  C   UNL     1       0.195  -1.308  -1.256  0.00  0.00    -0.025 A 
ATOM      6  C   UNL     1       0.238  -2.634  -1.673  0.00  0.00    -0.004 A 
ATOM      7  S   UNL     1       0.549  -3.705  -0.377  0.00  0.00    -0.073 S 
ATOM      8  C   UNL     1       0.586  -2.443   0.756  0.00  0.00    +0.114 A 
ATOM      9  N   UNL     1       0.841  -2.716   2.045  0.00  0.00    -0.228 NA
ATOM     10  C   UNL     1       0.093  -3.214  -3.055  0.00  0.00    +0.043 C 
ATOM     11  C   UNL     1      -0.841  -2.398  -3.945  0.00  0.00    +0.005 C 
ATOM     12  C   UNL     1      -0.201  -1.137  -4.526  0.00  0.00    +0.001 C 
ATOM     13  C   UNL     1       0.662  -0.318  -3.564  0.00  0.00    +0.005 C 
ATOM     14  C   UNL     1       0.042  -0.122  -2.181  0.00  0.00    +0.037 C 
ENDROOT
BRANCH   3  15
ATOM     15  N   UNL     1      -0.062   1.180   0.758  0.00  0.00    -0.314 N 
ATOM     16  C   UNL     1      -1.472   1.401   0.447  0.00  0.00    +0.106 C 
ATOM     17  C   UNL     1      -2.284   1.577   1.729  0.00  0.00    +0.020 C 
ATOM     18  C   UNL     1      -1.506   2.229   2.878  0.00  0.00    +0.016 C 
ATOM     19  C   UNL     1      -0.275   3.028   2.438  0.00  0.00    +0.092 C 
ATOM     20  C   UNL     1       0.623   2.283   1.435  0.00  0.00    +0.119 C 
BRANCH  19  21
ATOM     21  C   UNL     1      -0.668   4.384   1.868  0.00  0.00    +0.215 C 
ATOM     22  O   UNL     1      -1.759   4.639   1.371  0.00  0.00    -0.276 OA
ATOM     23  N   UNL     1       0.303   5.342   1.923  0.00  0.00    -0.329 N 
ATOM     24  H   UNL     1       1.210   5.200   2.344  0.00  0.00    +0.145 HD
ATOM     25  H   UNL     1       0.078   6.257   1.552  0.00  0.00    +0.145 HD
ENDBRANCH  19  21
ENDBRANCH   3  15
TORSDOF 2
