REMARK  Name = 
REMARK  9 active torsions:
REMARK  status: ('A' for Active; 'I' for Inactive)
REMARK    1  A    between atoms: C_1  and  C_2
REMARK    2  A    between atoms: C_6  and  N_8
REMARK    3  A    between atoms: N_8  and  S_9
REMARK    4  A    between atoms: S_9  and  C_12
REMARK    5  A    between atoms: C_16  and  C_18
REMARK    6  A    between atoms: C_18  and  O_19
REMARK    7  A    between atoms: N_20  and  C_21
REMARK    8  A    between atoms: C_24  and  S_27
REMARK    9  A    between atoms: S_27  and  N_30
REMARK                            x       y       z     vdW  Elec       q    Type
REMARK                         _______ _______ _______ _____ _____    ______ ____
ROOT
ATOM      1  C   UNL     1      -2.394  -0.335   0.612  0.00  0.00    +0.220 C 
ATOM      2  N   UNL     1      -3.063  -0.145  -0.474  0.00  0.00    -0.213 NA
ENDROOT
BRANCH   1   7
ATOM      3  C   UNL     1       1.115  -1.251   1.562  0.00  0.00    +0.109 A 
ATOM      4  C   UNL     1       1.788  -0.039   1.368  0.00  0.00    +0.029 A 
ATOM      5  C   UNL     1       1.075   1.088   0.956  0.00  0.00    +0.003 A 
ATOM      6  C   UNL     1      -0.299   0.998   0.726  0.00  0.00    +0.013 A 
ATOM      7  C   UNL     1      -0.957  -0.226   0.898  0.00  0.00    +0.038 A 
ATOM      8  C   UNL     1      -0.257  -1.358   1.318  0.00  0.00    +0.042 A 
BRANCH   3   9
ATOM      9  S   UNL     1       2.032  -2.693   2.060  0.00  0.00    +0.072 S 
ATOM     10  O   UNL     1       1.302  -3.859   1.611  0.00  0.00    -0.150 OA
ATOM     11  O   UNL     1       3.410  -2.480   1.668  0.00  0.00    -0.150 OA
BRANCH   9  12
ATOM     12  N   UNL     1       2.002  -2.608   3.745  0.00  0.00    -0.216 N 
ATOM     13  H   UNL     1       2.782  -2.069   4.117  0.00  0.00    +0.174 HD
BRANCH  12  19
ATOM     14  C   UNL     1      -1.217   0.121   6.325  0.00  0.00    +0.044 C 
ATOM     15  C   UNL     1      -0.834  -1.176   5.675  0.00  0.00    -0.049 A 
ATOM     16  C   UNL     1      -1.745  -2.237   5.622  0.00  0.00    +0.003 A 
ATOM     17  C   UNL     1      -1.406  -3.430   4.982  0.00  0.00    +0.002 A 
ATOM     18  C   UNL     1      -0.158  -3.567   4.376  0.00  0.00    +0.024 A 
ATOM     19  C   UNL     1       0.750  -2.510   4.411  0.00  0.00    +0.048 A 
ATOM     20  C   UNL     1       0.415  -1.317   5.055  0.00  0.00    +0.027 A 
ENDBRANCH  12  19
ENDBRANCH   9  12
ENDBRANCH   3   9
ENDBRANCH   1   7
BRANCH   2  21
ATOM     21  C   UNL     1      -2.368   0.166  -1.651  0.00  0.00    +0.068 A 
ATOM     22  C   UNL     1      -2.443   1.459  -2.176  0.00  0.00    +0.030 A 
ATOM     23  C   UNL     1      -1.718   1.803  -3.319  0.00  0.00    +0.030 A 
ATOM     24  C   UNL     1      -0.914   0.840  -3.937  0.00  0.00    +0.106 A 
ATOM     25  C   UNL     1      -0.890  -0.476  -3.467  0.00  0.00    +0.030 A 
ATOM     26  C   UNL     1      -1.620  -0.808  -2.324  0.00  0.00    +0.030 A 
BRANCH  24  27
ATOM     27  S   UNL     1       0.053   1.282  -5.365  0.00  0.00    +0.061 S 
ATOM     28  O   UNL     1      -0.574   2.435  -5.976  0.00  0.00    -0.153 OA
ATOM     29  O   UNL     1       0.294   0.072  -6.121  0.00  0.00    -0.153 OA
BRANCH  27  30
ATOM     30  N   UNL     1       1.531   1.784  -4.695  0.00  0.00    -0.172 NA
ATOM     31  C   UNL     1       2.354   0.739  -4.021  0.00  0.00    +0.137 C 
ATOM     32  C   UNL     1       3.759   1.290  -3.748  0.00  0.00    +0.177 C 
ATOM     33  O   UNL     1       3.700   2.487  -2.955  0.00  0.00    -0.377 OA
ATOM     34  C   UNL     1       2.961   3.503  -3.651  0.00  0.00    +0.177 C 
ATOM     35  C   UNL     1       1.519   3.051  -3.912  0.00  0.00    +0.137 C 
ENDBRANCH  27  30
ENDBRANCH  24  27
ENDBRANCH   2  21
BRANCH   1  36
ATOM     36  O   UNL     1      -3.070  -0.684   1.717  0.00  0.00    -0.492 OA
ATOM     37  H   UNL     1      -4.009  -0.743   1.472  0.00  0.00    +0.294 HD
ENDBRANCH   1  36
TORSDOF 8
