REMARK  Name = 
REMARK  8 active torsions:
REMARK  status: ('A' for Active; 'I' for Inactive)
REMARK    1  A    between atoms: C_1  and  C_2
REMARK    2  A    between atoms: C_6  and  N_8
REMARK    3  A    between atoms: N_8  and  S_9
REMARK    4  A    between atoms: S_9  and  C_12
REMARK    5  A    between atoms: C_16  and  C_18
REMARK    6  A    between atoms: N_20  and  C_21
REMARK    7  A    between atoms: C_24  and  S_27
REMARK    8  A    between atoms: S_27  and  N_30
REMARK                            x       y       z     vdW  Elec       q    Type
REMARK                         _______ _______ _______ _____ _____    ______ ____
ROOT
ATOM      1  C   UNL     1       2.183  -0.288  -0.393  0.00  0.00    +0.248 C 
ATOM      2  O   UNL     1       2.951   0.558   0.046  0.00  0.00    -0.270 OA
ATOM      3  N   UNL     1       1.489  -1.243   0.326  0.00  0.00    -0.282 N 
ATOM      4  H   UNL     1       0.967  -1.931  -0.203  0.00  0.00    +0.155 HD
ENDROOT
BRANCH   1   9
ATOM      5  C   UNL     1       0.548  -0.601  -3.798  0.00  0.00    +0.109 A 
ATOM      6  C   UNL     1       1.644  -0.414  -4.645  0.00  0.00    +0.029 A 
ATOM      7  C   UNL     1       2.900  -0.155  -4.098  0.00  0.00    +0.003 A 
ATOM      8  C   UNL     1       3.061  -0.107  -2.711  0.00  0.00    +0.013 A 
ATOM      9  C   UNL     1       1.968  -0.338  -1.865  0.00  0.00    +0.039 A 
ATOM     10  C   UNL     1       0.701  -0.576  -2.407  0.00  0.00    +0.042 A 
BRANCH   5  11
ATOM     11  S   UNL     1      -1.061  -0.924  -4.486  0.00  0.00    +0.072 S 
ATOM     12  O   UNL     1      -1.801  -1.668  -3.488  0.00  0.00    -0.150 OA
ATOM     13  O   UNL     1      -0.880  -1.442  -5.824  0.00  0.00    -0.150 OA
BRANCH  11  14
ATOM     14  N   UNL     1      -1.766   0.607  -4.552  0.00  0.00    -0.216 N 
ATOM     15  H   UNL     1      -2.278   0.840  -3.703  0.00  0.00    +0.174 HD
BRANCH  14  21
ATOM     16  C   UNL     1       0.647   4.919  -4.332  0.00  0.00    +0.044 C 
ATOM     17  C   UNL     1       0.131   3.753  -5.121  0.00  0.00    -0.049 A 
ATOM     18  C   UNL     1       0.317   3.697  -6.508  0.00  0.00    +0.003 A 
ATOM     19  C   UNL     1      -0.186   2.625  -7.247  0.00  0.00    +0.002 A 
ATOM     20  C   UNL     1      -0.885   1.602  -6.607  0.00  0.00    +0.024 A 
ATOM     21  C   UNL     1      -1.088   1.657  -5.229  0.00  0.00    +0.048 A 
ATOM     22  C   UNL     1      -0.590   2.731  -4.488  0.00  0.00    +0.027 A 
ENDBRANCH  14  21
ENDBRANCH  11  14
ENDBRANCH   5  11
ENDBRANCH   1   9
BRANCH   3  23
ATOM     23  C   UNL     1       1.466  -1.411   1.727  0.00  0.00    +0.034 A 
ATOM     24  C   UNL     1       0.708  -2.479   2.229  0.00  0.00    +0.025 A 
ATOM     25  C   UNL     1       0.628  -2.714   3.604  0.00  0.00    +0.030 A 
ATOM     26  C   UNL     1       1.309  -1.873   4.484  0.00  0.00    +0.106 A 
ATOM     27  C   UNL     1       2.075  -0.812   4.002  0.00  0.00    +0.030 A 
ATOM     28  C   UNL     1       2.146  -0.581   2.624  0.00  0.00    +0.025 A 
BRANCH  26  29
ATOM     29  S   UNL     1       1.206  -2.186   6.228  0.00  0.00    +0.061 S 
ATOM     30  O   UNL     1       2.028  -1.218   6.924  0.00  0.00    -0.153 OA
ATOM     31  O   UNL     1       1.395  -3.608   6.419  0.00  0.00    -0.153 OA
BRANCH  29  32
ATOM     32  N   UNL     1      -0.426  -1.818   6.576  0.00  0.00    -0.172 NA
ATOM     33  C   UNL     1      -0.797  -0.374   6.406  0.00  0.00    +0.137 C 
ATOM     34  C   UNL     1      -2.301  -0.203   6.649  0.00  0.00    +0.177 C 
ATOM     35  O   UNL     1      -2.671  -0.647   7.962  0.00  0.00    -0.377 OA
ATOM     36  C   UNL     1      -2.343  -2.035   8.130  0.00  0.00    +0.177 C 
ATOM     37  C   UNL     1      -0.843  -2.281   7.941  0.00  0.00    +0.137 C 
ENDBRANCH  29  32
ENDBRANCH  26  29
ENDBRANCH   3  23
TORSDOF 7
