REMARK  Name = 
REMARK  9 active torsions:
REMARK  status: ('A' for Active; 'I' for Inactive)
REMARK    1  A    between atoms: C_1  and  C_2
REMARK    2  A    between atoms: C_6  and  N_8
REMARK    3  A    between atoms: N_8  and  S_9
REMARK    4  A    between atoms: S_9  and  C_12
REMARK    5  A    between atoms: C_16  and  C_18
REMARK    6  A    between atoms: C_18  and  O_19
REMARK    7  A    between atoms: N_20  and  C_21
REMARK    8  A    between atoms: C_24  and  S_27
REMARK    9  A    between atoms: S_27  and  N_30
REMARK                            x       y       z     vdW  Elec       q    Type
REMARK                         _______ _______ _______ _____ _____    ______ ____
ROOT
ATOM      1  C   UNL     1       3.901   0.368  -0.604  0.00  0.00    +0.220 C 
ATOM      2  N   UNL     1       4.372   0.289   0.594  0.00  0.00    -0.213 NA
ENDROOT
BRANCH   1   7
ATOM      3  C   UNL     1       0.179   0.132  -1.120  0.00  0.00    +0.109 A 
ATOM      4  C   UNL     1       0.107  -0.686  -2.253  0.00  0.00    +0.029 A 
ATOM      5  C   UNL     1       1.283  -1.126  -2.861  0.00  0.00    +0.003 A 
ATOM      6  C   UNL     1       2.521  -0.767  -2.325  0.00  0.00    +0.013 A 
ATOM      7  C   UNL     1       2.587   0.028  -1.173  0.00  0.00    +0.038 A 
ATOM      8  C   UNL     1       1.414   0.490  -0.571  0.00  0.00    +0.042 A 
BRANCH   3   9
ATOM      9  S   UNL     1      -1.315   0.683  -0.329  0.00  0.00    +0.072 S 
ATOM     10  O   UNL     1      -2.394  -0.179  -0.758  0.00  0.00    -0.150 OA
ATOM     11  O   UNL     1      -1.018   0.851   1.080  0.00  0.00    -0.150 OA
BRANCH   9  12
ATOM     12  N   UNL     1      -1.535   2.232  -0.957  0.00  0.00    -0.216 N 
ATOM     13  H   UNL     1      -1.075   2.949  -0.397  0.00  0.00    +0.174 HD
BRANCH  12  19
ATOM     14  C   UNL     1       0.651   3.964  -5.042  0.00  0.00    +0.044 C 
ATOM     15  C   UNL     1      -0.493   3.259  -4.375  0.00  0.00    -0.049 A 
ATOM     16  C   UNL     1      -1.520   2.693  -5.141  0.00  0.00    +0.003 A 
ATOM     17  C   UNL     1      -2.565   2.005  -4.523  0.00  0.00    +0.002 A 
ATOM     18  C   UNL     1      -2.586   1.864  -3.136  0.00  0.00    +0.024 A 
ATOM     19  C   UNL     1      -1.561   2.411  -2.368  0.00  0.00    +0.048 A 
ATOM     20  C   UNL     1      -0.515   3.103  -2.983  0.00  0.00    +0.027 A 
ENDBRANCH  12  19
ENDBRANCH   9  12
ENDBRANCH   3   9
ENDBRANCH   1   7
BRANCH   2  21
ATOM     21  C   UNL     1       3.596  -0.269   1.619  0.00  0.00    +0.068 A 
ATOM     22  C   UNL     1       3.289  -1.635   1.642  0.00  0.00    +0.030 A 
ATOM     23  C   UNL     1       2.497  -2.166   2.662  0.00  0.00    +0.030 A 
ATOM     24  C   UNL     1       2.025  -1.323   3.672  0.00  0.00    +0.106 A 
ATOM     25  C   UNL     1       2.362   0.032   3.689  0.00  0.00    +0.030 A 
ATOM     26  C   UNL     1       3.153   0.551   2.662  0.00  0.00    +0.030 A 
BRANCH  24  27
ATOM     27  S   UNL     1       0.996  -2.005   4.949  0.00  0.00    +0.061 S 
ATOM     28  O   UNL     1       0.594  -0.938   5.841  0.00  0.00    -0.153 OA
ATOM     29  O   UNL     1       1.657  -3.193   5.444  0.00  0.00    -0.153 OA
BRANCH  27  30
ATOM     30  N   UNL     1      -0.390  -2.492   4.085  0.00  0.00    -0.172 NA
ATOM     31  C   UNL     1      -1.191  -1.388   3.454  0.00  0.00    +0.137 C 
ATOM     32  C   UNL     1      -2.498  -1.145   4.214  0.00  0.00    +0.177 C 
ATOM     33  O   UNL     1      -3.356  -2.295   4.252  0.00  0.00    -0.377 OA
ATOM     34  C   UNL     1      -2.641  -3.538   4.212  0.00  0.00    +0.177 C 
ATOM     35  C   UNL     1      -1.253  -3.449   4.850  0.00  0.00    +0.137 C 
ENDBRANCH  27  30
ENDBRANCH  24  27
ENDBRANCH   2  21
BRANCH   1  36
ATOM     36  O   UNL     1       4.711   0.868  -1.551  0.00  0.00    -0.492 OA
ATOM     37  H   UNL     1       5.557   1.079  -1.118  0.00  0.00    +0.294 HD
ENDBRANCH   1  36
TORSDOF 8
