REMARK  Name = 
REMARK  9 active torsions:
REMARK  status: ('A' for Active; 'I' for Inactive)
REMARK    1  A    between atoms: C_1  and  C_2
REMARK    2  A    between atoms: C_6  and  N_8
REMARK    3  A    between atoms: N_8  and  S_9
REMARK    4  A    between atoms: S_9  and  C_12
REMARK    5  A    between atoms: C_16  and  C_18
REMARK    6  A    between atoms: C_18  and  O_19
REMARK    7  A    between atoms: N_20  and  C_21
REMARK    8  A    between atoms: C_24  and  S_27
REMARK    9  A    between atoms: S_27  and  N_30
REMARK                            x       y       z     vdW  Elec       q    Type
REMARK                         _______ _______ _______ _____ _____    ______ ____
ROOT
ATOM      1  C   UNL     1       2.070   1.052  -3.094  0.00  0.00    +0.220 C 
ATOM      2  N   UNL     1       2.637   1.761  -2.179  0.00  0.00    -0.213 NA
ENDROOT
BRANCH   1   7
ATOM      3  C   UNL     1      -0.995  -0.966  -2.235  0.00  0.00    +0.109 A 
ATOM      4  C   UNL     1      -1.780  -0.781  -3.378  0.00  0.00    +0.029 A 
ATOM      5  C   UNL     1      -1.290  -0.010  -4.432  0.00  0.00    +0.003 A 
ATOM      6  C   UNL     1      -0.029   0.583  -4.336  0.00  0.00    +0.013 A 
ATOM      7  C   UNL     1       0.743   0.416  -3.179  0.00  0.00    +0.038 A 
ATOM      8  C   UNL     1       0.261  -0.361  -2.124  0.00  0.00    +0.042 A 
BRANCH   3   9
ATOM      9  S   UNL     1      -1.623  -1.931  -0.879  0.00  0.00    +0.072 S 
ATOM     10  O   UNL     1      -1.032  -1.420   0.339  0.00  0.00    -0.150 OA
ATOM     11  O   UNL     1      -3.062  -1.996  -1.026  0.00  0.00    -0.150 OA
BRANCH   9  12
ATOM     12  N   UNL     1      -1.041  -3.481  -1.198  0.00  0.00    -0.216 N 
ATOM     13  H   UNL     1      -1.676  -4.021  -1.783  0.00  0.00    +0.174 HD
BRANCH  12  19
ATOM     14  C   UNL     1       3.587  -3.351   0.596  0.00  0.00    +0.044 C 
ATOM     15  C   UNL     1       2.630  -3.569  -0.539  0.00  0.00    -0.049 A 
ATOM     16  C   UNL     1       3.098  -3.947  -1.803  0.00  0.00    +0.003 A 
ATOM     17  C   UNL     1       2.203  -4.179  -2.848  0.00  0.00    +0.002 A 
ATOM     18  C   UNL     1       0.831  -4.041  -2.639  0.00  0.00    +0.024 A 
ATOM     19  C   UNL     1       0.356  -3.674  -1.380  0.00  0.00    +0.048 A 
ATOM     20  C   UNL     1       1.250  -3.450  -0.331  0.00  0.00    +0.027 A 
ENDBRANCH  12  19
ENDBRANCH   9  12
ENDBRANCH   3   9
ENDBRANCH   1   7
BRANCH   2  21
ATOM     21  C   UNL     1       1.932   2.114  -1.023  0.00  0.00    +0.068 A 
ATOM     22  C   UNL     1       0.914   3.075  -1.059  0.00  0.00    +0.030 A 
ATOM     23  C   UNL     1       0.221   3.417   0.103  0.00  0.00    +0.030 A 
ATOM     24  C   UNL     1       0.558   2.796   1.310  0.00  0.00    +0.106 A 
ATOM     25  C   UNL     1       1.596   1.864   1.369  0.00  0.00    +0.030 A 
ATOM     26  C   UNL     1       2.285   1.534   0.200  0.00  0.00    +0.030 A 
BRANCH  24  27
ATOM     27  S   UNL     1      -0.344   3.220   2.779  0.00  0.00    +0.061 S 
ATOM     28  O   UNL     1       0.216   2.489   3.896  0.00  0.00    -0.153 OA
ATOM     29  O   UNL     1      -0.459   4.663   2.816  0.00  0.00    -0.153 OA
BRANCH  27  30
ATOM     30  N   UNL     1      -1.894   2.576   2.472  0.00  0.00    -0.172 NA
ATOM     31  C   UNL     1      -1.926   1.100   2.186  0.00  0.00    +0.137 C 
ATOM     32  C   UNL     1      -3.328   0.530   2.421  0.00  0.00    +0.177 C 
ATOM     33  O   UNL     1      -3.774   0.666   3.779  0.00  0.00    -0.377 OA
ATOM     34  C   UNL     1      -3.217   1.807   4.447  0.00  0.00    +0.177 C 
ATOM     35  C   UNL     1      -2.920   2.969   3.495  0.00  0.00    +0.137 C 
ENDBRANCH  27  30
ENDBRANCH  24  27
ENDBRANCH   2  21
BRANCH   1  36
ATOM     36  O   UNL     1       2.787   0.795  -4.201  0.00  0.00    -0.492 OA
ATOM     37  H   UNL     1       3.652   1.222  -4.081  0.00  0.00    +0.294 HD
ENDBRANCH   1  36
TORSDOF 8
