REMARK  Name = 
REMARK  8 active torsions:
REMARK  status: ('A' for Active; 'I' for Inactive)
REMARK    1  A    between atoms: C_1  and  C_2
REMARK    2  A    between atoms: C_6  and  N_8
REMARK    3  A    between atoms: N_8  and  S_9
REMARK    4  A    between atoms: S_9  and  C_12
REMARK    5  A    between atoms: C_16  and  C_18
REMARK    6  A    between atoms: N_20  and  C_21
REMARK    7  A    between atoms: C_24  and  S_27
REMARK    8  A    between atoms: S_27  and  N_30
REMARK                            x       y       z     vdW  Elec       q    Type
REMARK                         _______ _______ _______ _____ _____    ______ ____
ROOT
ATOM      1  C   UNL     1       1.392  -1.083  -0.630  0.00  0.00    +0.248 C 
ATOM      2  O   UNL     1       0.996  -1.052   0.527  0.00  0.00    -0.270 OA
ATOM      3  N   UNL     1       0.630  -1.230  -1.775  0.00  0.00    -0.282 N 
ATOM      4  H   UNL     1       1.108  -1.117  -2.660  0.00  0.00    +0.155 HD
ENDROOT
BRANCH   1   9
ATOM      5  C   UNL     1       4.930   0.159  -0.301  0.00  0.00    +0.109 A 
ATOM      6  C   UNL     1       5.604  -0.616  -1.252  0.00  0.00    +0.029 A 
ATOM      7  C   UNL     1       4.898  -1.557  -2.002  0.00  0.00    +0.003 A 
ATOM      8  C   UNL     1       3.523  -1.714  -1.811  0.00  0.00    +0.013 A 
ATOM      9  C   UNL     1       2.849  -0.917  -0.875  0.00  0.00    +0.039 A 
ATOM     10  C   UNL     1       3.551   0.024  -0.117  0.00  0.00    +0.042 A 
BRANCH   5  11
ATOM     11  S   UNL     1       5.825   1.368   0.643  0.00  0.00    +0.072 S 
ATOM     12  O   UNL     1       4.907   2.410   1.047  0.00  0.00    -0.150 OA
ATOM     13  O   UNL     1       7.025   1.690  -0.102  0.00  0.00    -0.150 OA
BRANCH  11  14
ATOM     14  N   UNL     1       6.342   0.487   1.990  0.00  0.00    -0.216 N 
ATOM     15  H   UNL     1       7.294   0.750   2.243  0.00  0.00    +0.174 HD
BRANCH  14  21
ATOM     16  C   UNL     1       2.668  -2.120   4.040  0.00  0.00    +0.044 C 
ATOM     17  C   UNL     1       3.619  -0.959   4.072  0.00  0.00    -0.049 A 
ATOM     18  C   UNL     1       3.515   0.017   5.069  0.00  0.00    +0.003 A 
ATOM     19  C   UNL     1       4.365   1.125   5.067  0.00  0.00    +0.002 A 
ATOM     20  C   UNL     1       5.317   1.274   4.058  0.00  0.00    +0.024 A 
ATOM     21  C   UNL     1       5.420   0.309   3.058  0.00  0.00    +0.048 A 
ATOM     22  C   UNL     1       4.574  -0.801   3.060  0.00  0.00    +0.027 A 
ENDBRANCH  14  21
ENDBRANCH  11  14
ENDBRANCH   5  11
ENDBRANCH   1   9
BRANCH   3  23
ATOM     23  C   UNL     1      -0.758  -1.464  -1.851  0.00  0.00    +0.034 A 
ATOM     24  C   UNL     1      -1.332  -1.495  -3.131  0.00  0.00    +0.025 A 
ATOM     25  C   UNL     1      -2.701  -1.722  -3.297  0.00  0.00    +0.030 A 
ATOM     26  C   UNL     1      -3.502  -1.921  -2.172  0.00  0.00    +0.106 A 
ATOM     27  C   UNL     1      -2.945  -1.907  -0.893  0.00  0.00    +0.030 A 
ATOM     28  C   UNL     1      -1.575  -1.675  -0.736  0.00  0.00    +0.025 A 
BRANCH  26  29
ATOM     29  S   UNL     1      -5.243  -2.206  -2.353  0.00  0.00    +0.061 S 
ATOM     30  O   UNL     1      -5.581  -2.127  -3.759  0.00  0.00    -0.153 OA
ATOM     31  O   UNL     1      -5.573  -3.377  -1.570  0.00  0.00    -0.153 OA
BRANCH  29  32
ATOM     32  N   UNL     1      -5.932  -0.844  -1.591  0.00  0.00    -0.172 NA
ATOM     33  C   UNL     1      -5.550   0.483  -2.181  0.00  0.00    +0.137 C 
ATOM     34  C   UNL     1      -6.553   1.564  -1.764  0.00  0.00    +0.177 C 
ATOM     35  O   UNL     1      -7.879   1.313  -2.250  0.00  0.00    -0.377 OA
ATOM     36  C   UNL     1      -8.181  -0.084  -2.378  0.00  0.00    +0.177 C 
ATOM     37  C   UNL     1      -7.415  -0.957  -1.380  0.00  0.00    +0.137 C 
ENDBRANCH  29  32
ENDBRANCH  26  29
ENDBRANCH   3  23
TORSDOF 7
