MODEL 1
REMARK minimizedAffinity -4.05435085
REMARK minimizedRMSD -1
REMARK  Name = 
REMARK  9 active torsions:
REMARK  status: ('A' for Active; 'I' for Inactive)
REMARK    1  A    between atoms: C_1  and  C_2
REMARK    2  A    between atoms: C_6  and  N_8
REMARK    3  A    between atoms: N_8  and  S_9
REMARK    4  A    between atoms: S_9  and  C_12
REMARK    5  A    between atoms: C_16  and  C_18
REMARK    6  A    between atoms: C_18  and  O_19
REMARK    7  A    between atoms: N_20  and  C_21
REMARK    8  A    between atoms: C_24  and  S_27
REMARK    9  A    between atoms: S_27  and  N_30
REMARK                            x       y       z     vdW  Elec       q    Type
REMARK                         _______ _______ _______ _____ _____    ______ ____
ROOT
ATOM      1  C   UNL     1      25.217 -42.212  -9.823  0.00  0.00    +0.220 C 
ATOM      2  N   UNL     1      25.761 -42.338  -8.660  0.00  0.00    -0.213 NA
ENDROOT
BRANCH   1   7
ATOM      3  C   UNL     1      25.264 -39.142 -11.975  0.00  0.00    +0.109 A 
ATOM      4  C   UNL     1      26.121 -39.534 -13.010  0.00  0.00    +0.029 A 
ATOM      5  C   UNL     1      26.655 -40.824 -13.014  0.00  0.00    +0.003 A 
ATOM      6  C   UNL     1      26.345 -41.709 -11.980  0.00  0.00    +0.013 A 
ATOM      7  C   UNL     1      25.508 -41.298 -10.936  0.00  0.00    +0.038 A 
ATOM      8  C   UNL     1      24.960 -40.014 -10.925  0.00  0.00    +0.042 A 
BRANCH   3   9
ATOM      9  S   UNL     1      24.608 -37.488 -11.959  0.00  0.00    +0.072 S 
ATOM     10  O   UNL     1      25.244 -36.749 -13.027  0.00  0.00    -0.150 OA
ATOM     11  O   UNL     1      23.165 -37.601 -11.888  0.00  0.00    -0.150 OA
BRANCH   9  12
ATOM     12  N   UNL     1      25.109 -36.887 -10.464  0.00  0.00    -0.216 N 
ATOM     13  H   UNL     1      24.499 -37.187  -9.705  0.00  0.00    +0.174 HD
BRANCH  12  19
ATOM     14  C   UNL     1      29.690 -38.653 -11.059  0.00  0.00    +0.044 C 
ATOM     15  C   UNL     1      28.750 -37.636 -10.484  0.00  0.00    -0.049 A 
ATOM     16  C   UNL     1      29.246 -36.526  -9.790  0.00  0.00    +0.003 A 
ATOM     17  C   UNL     1      28.375 -35.557  -9.289  0.00  0.00    +0.002 A 
ATOM     18  C   UNL     1      27.001 -35.681  -9.491  0.00  0.00    +0.024 A 
ATOM     19  C   UNL     1      26.500 -36.776 -10.194  0.00  0.00    +0.048 A 
ATOM     20  C   UNL     1      27.368 -37.749 -10.692  0.00  0.00    +0.027 A 
ENDBRANCH  12  19
ENDBRANCH   9  12
ENDBRANCH   3   9
ENDBRANCH   1   7
BRANCH   2  21
ATOM     21  C   UNL     1      26.778 -41.448  -8.289  0.00  0.00    +0.068 A 
ATOM     22  C   UNL     1      26.443 -40.180  -7.806  0.00  0.00    +0.030 A 
ATOM     23  C   UNL     1      27.439 -39.297  -7.383  0.00  0.00    +0.030 A 
ATOM     24  C   UNL     1      28.779 -39.693  -7.447  0.00  0.00    +0.106 A 
ATOM     25  C   UNL     1      29.132 -40.927  -7.999  0.00  0.00    +0.030 A 
ATOM     26  C   UNL     1      28.127 -41.801  -8.420  0.00  0.00    +0.030 A 
BRANCH  24  27
ATOM     27  S   UNL     1      30.053 -38.594  -6.864  0.00  0.00    +0.061 S 
ATOM     28  O   UNL     1      29.415 -37.352  -6.481  0.00  0.00    -0.153 OA
ATOM     29  O   UNL     1      31.127 -38.616  -7.834  0.00  0.00    -0.153 OA
BRANCH  27  30
ATOM     30  N   UNL     1      30.607 -39.355  -5.451  0.00  0.00    -0.172 NA
ATOM     31  C   UNL     1      29.586 -39.671  -4.411  0.00  0.00    +0.137 C 
ATOM     32  C   UNL     1      30.196 -40.607  -3.360  0.00  0.00    +0.177 C 
ATOM     33  O   UNL     1      31.369 -40.025  -2.768  0.00  0.00    -0.377 OA
ATOM     34  C   UNL     1      32.366 -39.792  -3.775  0.00  0.00    +0.177 C 
ATOM     35  C   UNL     1      31.853 -38.814  -4.839  0.00  0.00    +0.137 C 
ENDBRANCH  27  30
ENDBRANCH  24  27
ENDBRANCH   2  21
BRANCH   1  36
ATOM     36  O   UNL     1      24.209 -43.038 -10.141  0.00  0.00    -0.492 OA
ATOM     37  H   UNL     1      24.058 -43.615  -9.374  0.00  0.00    +0.294 HD
ENDBRANCH   1  36
TORSDOF 8
ENDMDL
MODEL 2
REMARK minimizedAffinity -3.71118045
REMARK minimizedRMSD -1
REMARK  Name = 
REMARK  9 active torsions:
REMARK  status: ('A' for Active; 'I' for Inactive)
REMARK    1  A    between atoms: C_1  and  C_2
REMARK    2  A    between atoms: C_6  and  N_8
REMARK    3  A    between atoms: N_8  and  S_9
REMARK    4  A    between atoms: S_9  and  C_12
REMARK    5  A    between atoms: C_16  and  C_18
REMARK    6  A    between atoms: C_18  and  O_19
REMARK    7  A    between atoms: N_20  and  C_21
REMARK    8  A    between atoms: C_24  and  S_27
REMARK    9  A    between atoms: S_27  and  N_30
REMARK                            x       y       z     vdW  Elec       q    Type
REMARK                         _______ _______ _______ _____ _____    ______ ____
ROOT
ATOM      1  C   UNL     1      26.594 -36.706 -10.108  0.00  0.00    +0.220 C 
ATOM      2  N   UNL     1      27.132 -36.677  -8.937  0.00  0.00    -0.213 NA
ENDROOT
BRANCH   1   7
ATOM      3  C   UNL     1      25.731 -39.860 -11.942  0.00  0.00    +0.109 A 
ATOM      4  C   UNL     1      26.458 -39.707 -13.129  0.00  0.00    +0.029 A 
ATOM      5  C   UNL     1      27.259 -38.578 -13.307  0.00  0.00    +0.003 A 
ATOM      6  C   UNL     1      27.320 -37.603 -12.310  0.00  0.00    +0.013 A 
ATOM      7  C   UNL     1      26.568 -37.753 -11.139  0.00  0.00    +0.038 A 
ATOM      8  C   UNL     1      25.770 -38.881 -10.945  0.00  0.00    +0.042 A 
BRANCH   3   9
ATOM      9  S   UNL     1      24.688 -41.286 -11.731  0.00  0.00    +0.072 S 
ATOM     10  O   UNL     1      25.382 -42.429 -12.284  0.00  0.00    -0.150 OA
ATOM     11  O   UNL     1      24.234 -41.284 -10.355  0.00  0.00    -0.150 OA
BRANCH   9  12
ATOM     12  N   UNL     1      23.337 -40.922 -12.674  0.00  0.00    -0.216 N 
ATOM     13  H   UNL     1      22.844 -41.759 -12.980  0.00  0.00    +0.174 HD
BRANCH  12  19
ATOM     14  C   UNL     1      19.846 -38.813  -9.875  0.00  0.00    +0.044 C 
ATOM     15  C   UNL     1      20.851 -38.733 -10.986  0.00  0.00    -0.049 A 
ATOM     16  C   UNL     1      21.106 -37.513 -11.623  0.00  0.00    +0.003 A 
ATOM     17  C   UNL     1      22.069 -37.427 -12.629  0.00  0.00    +0.002 A 
ATOM     18  C   UNL     1      22.798 -38.558 -12.996  0.00  0.00    +0.024 A 
ATOM     19  C   UNL     1      22.561 -39.773 -12.357  0.00  0.00    +0.048 A 
ATOM     20  C   UNL     1      21.594 -39.863 -11.353  0.00  0.00    +0.027 A 
ENDBRANCH  12  19
ENDBRANCH   9  12
ENDBRANCH   3   9
ENDBRANCH   1   7
BRANCH   2  21
ATOM     21  C   UNL     1      27.895 -37.775  -8.516  0.00  0.00    +0.068 A 
ATOM     22  C   UNL     1      29.193 -37.943  -9.006  0.00  0.00    +0.030 A 
ATOM     23  C   UNL     1      29.987 -39.002  -8.560  0.00  0.00    +0.030 A 
ATOM     24  C   UNL     1      29.472 -39.897  -7.617  0.00  0.00    +0.106 A 
ATOM     25  C   UNL     1      28.150 -39.784  -7.176  0.00  0.00    +0.030 A 
ATOM     26  C   UNL     1      27.366 -38.722  -7.630  0.00  0.00    +0.030 A 
BRANCH  24  27
ATOM     27  S   UNL     1      30.494 -41.220  -7.005  0.00  0.00    +0.061 S 
ATOM     28  O   UNL     1      31.663 -41.297  -7.857  0.00  0.00    -0.153 OA
ATOM     29  O   UNL     1      29.641 -42.370  -6.798  0.00  0.00    -0.153 OA
BRANCH  27  30
ATOM     30  N   UNL     1      30.992 -40.656  -5.483  0.00  0.00    -0.172 NA
ATOM     31  C   UNL     1      30.097 -40.955  -4.328  0.00  0.00    +0.137 C 
ATOM     32  C   UNL     1      30.831 -40.646  -3.017  0.00  0.00    +0.177 C 
ATOM     33  O   UNL     1      31.274 -39.280  -2.982  0.00  0.00    -0.377 OA
ATOM     34  C   UNL     1      32.187 -39.030  -4.062  0.00  0.00    +0.177 C 
ATOM     35  C   UNL     1      31.510 -39.261  -5.418  0.00  0.00    +0.137 C 
ENDBRANCH  27  30
ENDBRANCH  24  27
ENDBRANCH   2  21
BRANCH   1  36
ATOM     36  O   UNL     1      25.912 -35.625 -10.516  0.00  0.00    -0.492 OA
ATOM     37  H   UNL     1      25.963 -34.968  -9.802  0.00  0.00    +0.294 HD
ENDBRANCH   1  36
TORSDOF 8
ENDMDL
MODEL 3
REMARK minimizedAffinity -3.39473104
REMARK minimizedRMSD -1
REMARK  Name = 
REMARK  9 active torsions:
REMARK  status: ('A' for Active; 'I' for Inactive)
REMARK    1  A    between atoms: C_1  and  C_2
REMARK    2  A    between atoms: C_6  and  N_8
REMARK    3  A    between atoms: N_8  and  S_9
REMARK    4  A    between atoms: S_9  and  C_12
REMARK    5  A    between atoms: C_16  and  C_18
REMARK    6  A    between atoms: C_18  and  O_19
REMARK    7  A    between atoms: N_20  and  C_21
REMARK    8  A    between atoms: C_24  and  S_27
REMARK    9  A    between atoms: S_27  and  N_30
REMARK                            x       y       z     vdW  Elec       q    Type
REMARK                         _______ _______ _______ _____ _____    ______ ____
ROOT
ATOM      1  C   UNL     1      25.061 -28.048  -5.884  0.00  0.00    +0.220 C 
ATOM      2  N   UNL     1      25.860 -28.291  -4.902  0.00  0.00    -0.213 NA
ENDROOT
BRANCH   1   7
ATOM      3  C   UNL     1      26.344 -28.328  -9.396  0.00  0.00    +0.109 A 
ATOM      4  C   UNL     1      25.765 -27.206 -10.001  0.00  0.00    +0.029 A 
ATOM      5  C   UNL     1      24.978 -26.341  -9.239  0.00  0.00    +0.003 A 
ATOM      6  C   UNL     1      24.762 -26.604  -7.885  0.00  0.00    +0.013 A 
ATOM      7  C   UNL     1      25.325 -27.743  -7.297  0.00  0.00    +0.038 A 
ATOM      8  C   UNL     1      26.121 -28.612  -8.046  0.00  0.00    +0.042 A 
BRANCH   3   9
ATOM      9  S   UNL     1      27.323 -29.445 -10.376  0.00  0.00    +0.072 S 
ATOM     10  O   UNL     1      27.792 -28.720 -11.538  0.00  0.00    -0.150 OA
ATOM     11  O   UNL     1      28.255 -30.098  -9.479  0.00  0.00    -0.150 OA
BRANCH   9  12
ATOM     12  N   UNL     1      26.212 -30.626 -10.844  0.00  0.00    -0.216 N 
ATOM     13  H   UNL     1      25.250 -30.339 -10.670  0.00  0.00    +0.174 HD
BRANCH  12  19
ATOM     14  C   UNL     1      28.984 -34.030 -13.122  0.00  0.00    +0.044 C 
ATOM     15  C   UNL     1      27.829 -33.073 -13.128  0.00  0.00    -0.049 A 
ATOM     16  C   UNL     1      26.950 -33.030 -14.216  0.00  0.00    +0.003 A 
ATOM     17  C   UNL     1      25.851 -32.170 -14.206  0.00  0.00    +0.002 A 
ATOM     18  C   UNL     1      25.613 -31.355 -13.100  0.00  0.00    +0.024 A 
ATOM     19  C   UNL     1      26.474 -31.402 -12.005  0.00  0.00    +0.048 A 
ATOM     20  C   UNL     1      27.577 -32.258 -12.015  0.00  0.00    +0.027 A 
ENDBRANCH  12  19
ENDBRANCH   9  12
ENDBRANCH   3   9
ENDBRANCH   1   7
BRANCH   2  21
ATOM     21  C   UNL     1      27.243 -28.213  -5.119  0.00  0.00    +0.068 A 
ATOM     22  C   UNL     1      27.996 -29.387  -5.204  0.00  0.00    +0.030 A 
ATOM     23  C   UNL     1      29.366 -29.333  -5.471  0.00  0.00    +0.030 A 
ATOM     24  C   UNL     1      29.981 -28.090  -5.652  0.00  0.00    +0.106 A 
ATOM     25  C   UNL     1      29.254 -26.906  -5.493  0.00  0.00    +0.030 A 
ATOM     26  C   UNL     1      27.886 -26.973  -5.226  0.00  0.00    +0.030 A 
BRANCH  24  27
ATOM     27  S   UNL     1      31.716 -28.012  -6.041  0.00  0.00    +0.061 S 
ATOM     28  O   UNL     1      32.365 -29.113  -5.363  0.00  0.00    -0.153 OA
ATOM     29  O   UNL     1      32.149 -26.646  -5.836  0.00  0.00    -0.153 OA
BRANCH  27  30
ATOM     30  N   UNL     1      31.756 -28.329  -7.710  0.00  0.00    -0.172 NA
ATOM     31  C   UNL     1      30.778 -27.589  -8.559  0.00  0.00    +0.137 C 
ATOM     32  C   UNL     1      31.148 -27.764 -10.037  0.00  0.00    +0.177 C 
ATOM     33  O   UNL     1      31.192 -29.154 -10.398  0.00  0.00    -0.377 OA
ATOM     34  C   UNL     1      32.187 -29.835  -9.617  0.00  0.00    +0.177 C 
ATOM     35  C   UNL     1      31.857 -29.757  -8.121  0.00  0.00    +0.137 C 
ENDBRANCH  27  30
ENDBRANCH  24  27
ENDBRANCH   2  21
BRANCH   1  36
ATOM     36  O   UNL     1      23.741 -28.076  -5.646  0.00  0.00    -0.492 OA
ATOM     37  H   UNL     1      23.624 -28.279  -4.702  0.00  0.00    +0.294 HD
ENDBRANCH   1  36
TORSDOF 8
ENDMDL
MODEL 4
REMARK minimizedAffinity -3.24501395
REMARK minimizedRMSD -1
REMARK  Name = 
REMARK  9 active torsions:
REMARK  status: ('A' for Active; 'I' for Inactive)
REMARK    1  A    between atoms: C_1  and  C_2
REMARK    2  A    between atoms: C_6  and  N_8
REMARK    3  A    between atoms: N_8  and  S_9
REMARK    4  A    between atoms: S_9  and  C_12
REMARK    5  A    between atoms: C_16  and  C_18
REMARK    6  A    between atoms: C_18  and  O_19
REMARK    7  A    between atoms: N_20  and  C_21
REMARK    8  A    between atoms: C_24  and  S_27
REMARK    9  A    between atoms: S_27  and  N_30
REMARK                            x       y       z     vdW  Elec       q    Type
REMARK                         _______ _______ _______ _____ _____    ______ ____
ROOT
ATOM      1  C   UNL     1      25.771 -37.688 -10.933  0.00  0.00    +0.220 C 
ATOM      2  N   UNL     1      25.792 -36.429 -10.656  0.00  0.00    -0.213 NA
ENDROOT
BRANCH   1   7
ATOM      3  C   UNL     1      27.763 -40.674  -9.849  0.00  0.00    +0.109 A 
ATOM      4  C   UNL     1      28.781 -40.701 -10.810  0.00  0.00    +0.029 A 
ATOM      5  C   UNL     1      28.827 -39.712 -11.794  0.00  0.00    +0.003 A 
ATOM      6  C   UNL     1      27.853 -38.713 -11.825  0.00  0.00    +0.013 A 
ATOM      7  C   UNL     1      26.824 -38.711 -10.875  0.00  0.00    +0.038 A 
ATOM      8  C   UNL     1      26.771 -39.689  -9.881  0.00  0.00    +0.042 A 
BRANCH   3   9
ATOM      9  S   UNL     1      27.690 -41.952  -8.613  0.00  0.00    +0.072 S 
ATOM     10  O   UNL     1      26.500 -41.733  -7.819  0.00  0.00    -0.150 OA
ATOM     11  O   UNL     1      27.913 -43.214  -9.288  0.00  0.00    -0.150 OA
BRANCH   9  12
ATOM     12  N   UNL     1      29.066 -41.667  -7.679  0.00  0.00    -0.216 N 
ATOM     13  H   UNL     1      29.841 -42.274  -7.940  0.00  0.00    +0.174 HD
BRANCH  12  19
ATOM     14  C   UNL     1      31.963 -37.681  -8.111  0.00  0.00    +0.044 C 
ATOM     15  C   UNL     1      30.786 -38.377  -7.492  0.00  0.00    -0.049 A 
ATOM     16  C   UNL     1      29.930 -37.686  -6.627  0.00  0.00    +0.003 A 
ATOM     17  C   UNL     1      28.811 -38.319  -6.083  0.00  0.00    +0.002 A 
ATOM     18  C   UNL     1      28.531 -39.644  -6.411  0.00  0.00    +0.024 A 
ATOM     19  C   UNL     1      29.370 -40.336  -7.284  0.00  0.00    +0.048 A 
ATOM     20  C   UNL     1      30.492 -39.706  -7.826  0.00  0.00    +0.027 A 
ENDBRANCH  12  19
ENDBRANCH   9  12
ENDBRANCH   3   9
ENDBRANCH   1   7
BRANCH   2  21
ATOM     21  C   UNL     1      27.006 -35.838 -10.282  0.00  0.00    +0.068 A 
ATOM     22  C   UNL     1      27.651 -34.966 -11.164  0.00  0.00    +0.030 A 
ATOM     23  C   UNL     1      28.836 -34.328 -10.791  0.00  0.00    +0.030 A 
ATOM     24  C   UNL     1      29.375 -34.569  -9.523  0.00  0.00    +0.106 A 
ATOM     25  C   UNL     1      28.782 -35.496  -8.661  0.00  0.00    +0.030 A 
ATOM     26  C   UNL     1      27.598 -36.129  -9.046  0.00  0.00    +0.030 A 
BRANCH  24  27
ATOM     27  S   UNL     1      30.857 -33.722  -9.019  0.00  0.00    +0.061 S 
ATOM     28  O   UNL     1      30.676 -32.315  -9.310  0.00  0.00    -0.153 OA
ATOM     29  O   UNL     1      31.983 -34.458  -9.551  0.00  0.00    -0.153 OA
BRANCH  27  30
ATOM     30  N   UNL     1      30.859 -33.911  -7.331  0.00  0.00    -0.172 NA
ATOM     31  C   UNL     1      30.056 -32.932  -6.543  0.00  0.00    +0.137 C 
ATOM     32  C   UNL     1      29.928 -33.422  -5.095  0.00  0.00    +0.177 C 
ATOM     33  O   UNL     1      31.221 -33.622  -4.500  0.00  0.00    -0.377 OA
ATOM     34  C   UNL     1      31.952 -34.617  -5.233  0.00  0.00    +0.177 C 
ATOM     35  C   UNL     1      32.175 -34.175  -6.685  0.00  0.00    +0.137 C 
ENDBRANCH  27  30
ENDBRANCH  24  27
ENDBRANCH   2  21
BRANCH   1  36
ATOM     36  O   UNL     1      24.612 -38.226 -11.341  0.00  0.00    -0.492 OA
ATOM     37  H   UNL     1      23.955 -37.510 -11.362  0.00  0.00    +0.294 HD
ENDBRANCH   1  36
TORSDOF 8
ENDMDL
MODEL 5
REMARK minimizedAffinity -3.01512861
REMARK minimizedRMSD -1
REMARK  Name = 
REMARK  9 active torsions:
REMARK  status: ('A' for Active; 'I' for Inactive)
REMARK    1  A    between atoms: C_1  and  C_2
REMARK    2  A    between atoms: C_6  and  N_8
REMARK    3  A    between atoms: N_8  and  S_9
REMARK    4  A    between atoms: S_9  and  C_12
REMARK    5  A    between atoms: C_16  and  C_18
REMARK    6  A    between atoms: C_18  and  O_19
REMARK    7  A    between atoms: N_20  and  C_21
REMARK    8  A    between atoms: C_24  and  S_27
REMARK    9  A    between atoms: S_27  and  N_30
REMARK                            x       y       z     vdW  Elec       q    Type
REMARK                         _______ _______ _______ _____ _____    ______ ____
ROOT
ATOM      1  C   UNL     1      31.596 -34.909 -12.918  0.00  0.00    +0.220 C 
ATOM      2  N   UNL     1      32.164 -33.970 -12.241  0.00  0.00    -0.213 NA
ENDROOT
BRANCH   1   7
ATOM      3  C   UNL     1      28.295 -36.477 -12.081  0.00  0.00    +0.109 A 
ATOM      4  C   UNL     1      28.657 -37.816 -11.889  0.00  0.00    +0.029 A 
ATOM      5  C   UNL     1      29.996 -38.192 -12.003  0.00  0.00    +0.003 A 
ATOM      6  C   UNL     1      30.964 -37.238 -12.321  0.00  0.00    +0.013 A 
ATOM      7  C   UNL     1      30.587 -35.907 -12.537  0.00  0.00    +0.038 A 
ATOM      8  C   UNL     1      29.253 -35.516 -12.418  0.00  0.00    +0.042 A 
BRANCH   3   9
ATOM      9  S   UNL     1      26.583 -36.006 -11.963  0.00  0.00    +0.072 S 
ATOM     10  O   UNL     1      26.413 -34.768 -12.694  0.00  0.00    -0.150 OA
ATOM     11  O   UNL     1      25.794 -37.176 -12.287  0.00  0.00    -0.150 OA
BRANCH   9  12
ATOM     12  N   UNL     1      26.369 -35.734 -10.312  0.00  0.00    -0.216 N 
ATOM     13  H   UNL     1      25.389 -35.611 -10.066  0.00  0.00    +0.174 HD
BRANCH  12  19
ATOM     14  C   UNL     1      27.397 -39.846  -7.763  0.00  0.00    +0.044 C 
ATOM     15  C   UNL     1      27.716 -38.428  -8.133  0.00  0.00    -0.049 A 
ATOM     16  C   UNL     1      28.887 -37.821  -7.665  0.00  0.00    +0.003 A 
ATOM     17  C   UNL     1      29.207 -36.515  -8.041  0.00  0.00    +0.002 A 
ATOM     18  C   UNL     1      28.366 -35.811  -8.901  0.00  0.00    +0.024 A 
ATOM     19  C   UNL     1      27.206 -36.413  -9.385  0.00  0.00    +0.048 A 
ATOM     20  C   UNL     1      26.881 -37.717  -9.006  0.00  0.00    +0.027 A 
ENDBRANCH  12  19
ENDBRANCH   9  12
ENDBRANCH   3   9
ENDBRANCH   1   7
BRANCH   2  21
ATOM     21  C   UNL     1      31.865 -33.845 -10.877  0.00  0.00    +0.068 A 
ATOM     22  C   UNL     1      31.095 -32.766 -10.434  0.00  0.00    +0.030 A 
ATOM     23  C   UNL     1      30.745 -32.651  -9.087  0.00  0.00    +0.030 A 
ATOM     24  C   UNL     1      31.172 -33.627  -8.181  0.00  0.00    +0.106 A 
ATOM     25  C   UNL     1      32.006 -34.668  -8.597  0.00  0.00    +0.030 A 
ATOM     26  C   UNL     1      32.351 -34.772  -9.946  0.00  0.00    +0.030 A 
BRANCH  24  27
ATOM     27  S   UNL     1      30.689 -33.516  -6.471  0.00  0.00    +0.061 S 
ATOM     28  O   UNL     1      31.607 -34.332  -5.705  0.00  0.00    -0.153 OA
ATOM     29  O   UNL     1      29.260 -33.734  -6.406  0.00  0.00    -0.153 OA
BRANCH  27  30
ATOM     30  N   UNL     1      30.988 -31.889  -6.086  0.00  0.00    -0.172 NA
ATOM     31  C   UNL     1      31.966 -31.626  -4.991  0.00  0.00    +0.137 C 
ATOM     32  C   UNL     1      32.336 -30.137  -4.982  0.00  0.00    +0.177 C 
ATOM     33  O   UNL     1      31.167 -29.315  -4.834  0.00  0.00    -0.377 OA
ATOM     34  C   UNL     1      30.269 -29.533  -5.934  0.00  0.00    +0.177 C 
ATOM     35  C   UNL     1      29.803 -30.994  -5.979  0.00  0.00    +0.137 C 
ENDBRANCH  27  30
ENDBRANCH  24  27
ENDBRANCH   2  21
BRANCH   1  36
ATOM     36  O   UNL     1      31.933 -35.048 -14.210  0.00  0.00    -0.492 OA
ATOM     37  H   UNL     1      32.601 -34.369 -14.406  0.00  0.00    +0.294 HD
ENDBRANCH   1  36
TORSDOF 8
ENDMDL
MODEL 6
REMARK minimizedAffinity -2.99429941
REMARK minimizedRMSD -1
REMARK  Name = 
REMARK  9 active torsions:
REMARK  status: ('A' for Active; 'I' for Inactive)
REMARK    1  A    between atoms: C_1  and  C_2
REMARK    2  A    between atoms: C_6  and  N_8
REMARK    3  A    between atoms: N_8  and  S_9
REMARK    4  A    between atoms: S_9  and  C_12
REMARK    5  A    between atoms: C_16  and  C_18
REMARK    6  A    between atoms: C_18  and  O_19
REMARK    7  A    between atoms: N_20  and  C_21
REMARK    8  A    between atoms: C_24  and  S_27
REMARK    9  A    between atoms: S_27  and  N_30
REMARK                            x       y       z     vdW  Elec       q    Type
REMARK                         _______ _______ _______ _____ _____    ______ ____
ROOT
ATOM      1  C   UNL     1      25.048 -28.042  -6.033  0.00  0.00    +0.220 C 
ATOM      2  N   UNL     1      25.823 -28.205  -5.015  0.00  0.00    -0.213 NA
ENDROOT
BRANCH   1   7
ATOM      3  C   UNL     1      26.526 -28.267  -9.471  0.00  0.00    +0.109 A 
ATOM      4  C   UNL     1      25.856 -27.234 -10.137  0.00  0.00    +0.029 A 
ATOM      5  C   UNL     1      24.942 -26.443  -9.440  0.00  0.00    +0.003 A 
ATOM      6  C   UNL     1      24.689 -26.694  -8.090  0.00  0.00    +0.013 A 
ATOM      7  C   UNL     1      25.346 -27.746  -7.441  0.00  0.00    +0.038 A 
ATOM      8  C   UNL     1      26.269 -28.539  -8.124  0.00  0.00    +0.042 A 
BRANCH   3   9
ATOM      9  S   UNL     1      27.670 -29.293 -10.370  0.00  0.00    +0.072 S 
ATOM     10  O   UNL     1      26.932 -30.415 -10.907  0.00  0.00    -0.150 OA
ATOM     11  O   UNL     1      28.436 -28.421 -11.237  0.00  0.00    -0.150 OA
BRANCH   9  12
ATOM     12  N   UNL     1      28.736 -29.824  -9.174  0.00  0.00    -0.216 N 
ATOM     13  H   UNL     1      28.360 -29.690  -8.237  0.00  0.00    +0.174 HD
BRANCH  12  19
ATOM     14  C   UNL     1      31.177 -32.693 -12.379  0.00  0.00    +0.044 C 
ATOM     15  C   UNL     1      30.724 -32.393 -10.980  0.00  0.00    -0.049 A 
ATOM     16  C   UNL     1      31.170 -33.176  -9.909  0.00  0.00    +0.003 A 
ATOM     17  C   UNL     1      30.783 -32.874  -8.603  0.00  0.00    +0.002 A 
ATOM     18  C   UNL     1      29.959 -31.777  -8.354  0.00  0.00    +0.024 A 
ATOM     19  C   UNL     1      29.524 -30.983  -9.414  0.00  0.00    +0.048 A 
ATOM     20  C   UNL     1      29.905 -31.286 -10.722  0.00  0.00    +0.027 A 
ENDBRANCH  12  19
ENDBRANCH   9  12
ENDBRANCH   3   9
ENDBRANCH   1   7
BRANCH   2  21
ATOM     21  C   UNL     1      27.204 -28.030  -5.180  0.00  0.00    +0.068 A 
ATOM     22  C   UNL     1      28.022 -29.144  -5.387  0.00  0.00    +0.030 A 
ATOM     23  C   UNL     1      29.392 -28.986  -5.605  0.00  0.00    +0.030 A 
ATOM     24  C   UNL     1      29.942 -27.700  -5.613  0.00  0.00    +0.106 A 
ATOM     25  C   UNL     1      29.149 -26.585  -5.332  0.00  0.00    +0.030 A 
ATOM     26  C   UNL     1      27.780 -26.755  -5.115  0.00  0.00    +0.030 A 
BRANCH  24  27
ATOM     27  S   UNL     1      31.679 -27.485  -5.939  0.00  0.00    +0.061 S 
ATOM     28  O   UNL     1      32.366 -28.654  -5.431  0.00  0.00    -0.153 OA
ATOM     29  O   UNL     1      32.044 -26.155  -5.504  0.00  0.00    -0.153 OA
BRANCH  27  30
ATOM     30  N   UNL     1      31.765 -27.524  -7.635  0.00  0.00    -0.172 NA
ATOM     31  C   UNL     1      30.724 -26.758  -8.379  0.00  0.00    +0.137 C 
ATOM     32  C   UNL     1      31.123 -26.654  -9.857  0.00  0.00    +0.177 C 
ATOM     33  O   UNL     1      31.312 -27.956 -10.434  0.00  0.00    -0.377 OA
ATOM     34  C   UNL     1      32.364 -28.651  -9.747  0.00  0.00    +0.177 C 
ATOM     35  C   UNL     1      32.016 -28.849  -8.266  0.00  0.00    +0.137 C 
ENDBRANCH  27  30
ENDBRANCH  24  27
ENDBRANCH   2  21
BRANCH   1  36
ATOM     36  O   UNL     1      23.725 -28.162  -5.845  0.00  0.00    -0.492 OA
ATOM     37  H   UNL     1      23.586 -28.354  -4.903  0.00  0.00    +0.294 HD
ENDBRANCH   1  36
TORSDOF 8
ENDMDL
MODEL 7
REMARK minimizedAffinity -2.70967793
REMARK minimizedRMSD -1
REMARK  Name = 
REMARK  9 active torsions:
REMARK  status: ('A' for Active; 'I' for Inactive)
REMARK    1  A    between atoms: C_1  and  C_2
REMARK    2  A    between atoms: C_6  and  N_8
REMARK    3  A    between atoms: N_8  and  S_9
REMARK    4  A    between atoms: S_9  and  C_12
REMARK    5  A    between atoms: C_16  and  C_18
REMARK    6  A    between atoms: C_18  and  O_19
REMARK    7  A    between atoms: N_20  and  C_21
REMARK    8  A    between atoms: C_24  and  S_27
REMARK    9  A    between atoms: S_27  and  N_30
REMARK                            x       y       z     vdW  Elec       q    Type
REMARK                         _______ _______ _______ _____ _____    ______ ____
ROOT
ATOM      1  C   UNL     1      26.079 -37.751 -12.206  0.00  0.00    +0.220 C 
ATOM      2  N   UNL     1      26.329 -36.503 -11.999  0.00  0.00    -0.213 NA
ENDROOT
BRANCH   1   7
ATOM      3  C   UNL     1      28.295 -40.282 -10.552  0.00  0.00    +0.109 A 
ATOM      4  C   UNL     1      27.363 -41.218 -10.089  0.00  0.00    +0.029 A 
ATOM      5  C   UNL     1      26.005 -41.029 -10.354  0.00  0.00    +0.003 A 
ATOM      6  C   UNL     1      25.584 -39.903 -11.064  0.00  0.00    +0.013 A 
ATOM      7  C   UNL     1      26.523 -38.960 -11.499  0.00  0.00    +0.038 A 
ATOM      8  C   UNL     1      27.884 -39.143 -11.248  0.00  0.00    +0.042 A 
BRANCH   3   9
ATOM      9  S   UNL     1      30.022 -40.512 -10.188  0.00  0.00    +0.072 S 
ATOM     10  O   UNL     1      30.156 -41.738  -9.431  0.00  0.00    -0.150 OA
ATOM     11  O   UNL     1      30.750 -40.317 -11.425  0.00  0.00    -0.150 OA
BRANCH   9  12
ATOM     12  N   UNL     1      30.391 -39.188  -9.210  0.00  0.00    -0.216 N 
ATOM     13  H   UNL     1      30.395 -38.313  -9.731  0.00  0.00    +0.174 HD
BRANCH  12  19
ATOM     14  C   UNL     1      31.367 -39.307  -4.362  0.00  0.00    +0.044 C 
ATOM     15  C   UNL     1      30.384 -39.216  -5.492  0.00  0.00    -0.049 A 
ATOM     16  C   UNL     1      29.028 -38.989  -5.235  0.00  0.00    +0.003 A 
ATOM     17  C   UNL     1      28.118 -38.863  -6.286  0.00  0.00    +0.002 A 
ATOM     18  C   UNL     1      28.561 -38.949  -7.605  0.00  0.00    +0.024 A 
ATOM     19  C   UNL     1      29.912 -39.160  -7.872  0.00  0.00    +0.048 A 
ATOM     20  C   UNL     1      30.823 -39.292  -6.821  0.00  0.00    +0.027 A 
ENDBRANCH  12  19
ENDBRANCH   9  12
ENDBRANCH   3   9
ENDBRANCH   1   7
BRANCH   2  21
ATOM     21  C   UNL     1      27.220 -36.153 -10.975  0.00  0.00    +0.068 A 
ATOM     22  C   UNL     1      26.770 -36.108  -9.653  0.00  0.00    +0.030 A 
ATOM     23  C   UNL     1      27.653 -35.811  -8.613  0.00  0.00    +0.030 A 
ATOM     24  C   UNL     1      28.997 -35.556  -8.906  0.00  0.00    +0.106 A 
ATOM     25  C   UNL     1      29.443 -35.522 -10.230  0.00  0.00    +0.030 A 
ATOM     26  C   UNL     1      28.550 -35.820 -11.261  0.00  0.00    +0.030 A 
BRANCH  24  27
ATOM     27  S   UNL     1      30.141 -35.225  -7.583  0.00  0.00    +0.061 S 
ATOM     28  O   UNL     1      31.479 -35.365  -8.119  0.00  0.00    -0.153 OA
ATOM     29  O   UNL     1      29.711 -35.990  -6.432  0.00  0.00    -0.153 OA
BRANCH  27  30
ATOM     30  N   UNL     1      29.882 -33.581  -7.246  0.00  0.00    -0.172 NA
ATOM     31  C   UNL     1      30.638 -32.597  -8.073  0.00  0.00    +0.137 C 
ATOM     32  C   UNL     1      30.069 -31.191  -7.845  0.00  0.00    +0.177 C 
ATOM     33  O   UNL     1      30.115 -30.834  -6.454  0.00  0.00    -0.377 OA
ATOM     34  C   UNL     1      29.326 -31.754  -5.683  0.00  0.00    +0.177 C 
ATOM     35  C   UNL     1      29.869 -33.182  -5.810  0.00  0.00    +0.137 C 
ENDBRANCH  27  30
ENDBRANCH  24  27
ENDBRANCH   2  21
BRANCH   1  36
ATOM     36  O   UNL     1      25.265 -38.072 -13.223  0.00  0.00    -0.492 OA
ATOM     37  H   UNL     1      25.004 -37.241 -13.655  0.00  0.00    +0.294 HD
ENDBRANCH   1  36
TORSDOF 8
ENDMDL
MODEL 8
REMARK minimizedAffinity -2.6984477
REMARK minimizedRMSD -1
REMARK  Name = 
REMARK  9 active torsions:
REMARK  status: ('A' for Active; 'I' for Inactive)
REMARK    1  A    between atoms: C_1  and  C_2
REMARK    2  A    between atoms: C_6  and  N_8
REMARK    3  A    between atoms: N_8  and  S_9
REMARK    4  A    between atoms: S_9  and  C_12
REMARK    5  A    between atoms: C_16  and  C_18
REMARK    6  A    between atoms: C_18  and  O_19
REMARK    7  A    between atoms: N_20  and  C_21
REMARK    8  A    between atoms: C_24  and  S_27
REMARK    9  A    between atoms: S_27  and  N_30
REMARK                            x       y       z     vdW  Elec       q    Type
REMARK                         _______ _______ _______ _____ _____    ______ ____
ROOT
ATOM      1  C   UNL     1      25.783 -40.172 -11.222  0.00  0.00    +0.220 C 
ATOM      2  N   UNL     1      25.907 -38.950 -11.613  0.00  0.00    -0.213 NA
ENDROOT
BRANCH   1   7
ATOM      3  C   UNL     1      28.412 -41.721  -9.044  0.00  0.00    +0.109 A 
ATOM      4  C   UNL     1      27.643 -42.240  -7.995  0.00  0.00    +0.029 A 
ATOM      5  C   UNL     1      26.254 -42.107  -8.026  0.00  0.00    +0.003 A 
ATOM      6  C   UNL     1      25.641 -41.446  -9.092  0.00  0.00    +0.013 A 
ATOM      7  C   UNL     1      26.422 -40.908 -10.122  0.00  0.00    +0.038 A 
ATOM      8  C   UNL     1      27.811 -41.042 -10.107  0.00  0.00    +0.042 A 
BRANCH   3   9
ATOM      9  S   UNL     1      30.185 -41.868  -8.987  0.00  0.00    +0.072 S 
ATOM     10  O   UNL     1      30.510 -42.969  -8.107  0.00  0.00    -0.150 OA
ATOM     11  O   UNL     1      30.660 -41.842 -10.355  0.00  0.00    -0.150 OA
BRANCH   9  12
ATOM     12  N   UNL     1      30.672 -40.410  -8.290  0.00  0.00    -0.216 N 
ATOM     13  H   UNL     1      30.935 -39.718  -8.989  0.00  0.00    +0.174 HD
BRANCH  12  19
ATOM     14  C   UNL     1      30.244 -40.518  -3.363  0.00  0.00    +0.044 C 
ATOM     15  C   UNL     1      29.802 -39.998  -4.700  0.00  0.00    -0.049 A 
ATOM     16  C   UNL     1      28.838 -38.987  -4.781  0.00  0.00    +0.003 A 
ATOM     17  C   UNL     1      28.455 -38.472  -6.021  0.00  0.00    +0.002 A 
ATOM     18  C   UNL     1      29.043 -38.954  -7.189  0.00  0.00    +0.024 A 
ATOM     19  C   UNL     1      30.015 -39.951  -7.116  0.00  0.00    +0.048 A 
ATOM     20  C   UNL     1      30.397 -40.471  -5.877  0.00  0.00    +0.027 A 
ENDBRANCH  12  19
ENDBRANCH   9  12
ENDBRANCH   3   9
ENDBRANCH   1   7
BRANCH   2  21
ATOM     21  C   UNL     1      26.839 -38.124 -10.969  0.00  0.00    +0.068 A 
ATOM     22  C   UNL     1      26.428 -37.323  -9.900  0.00  0.00    +0.030 A 
ATOM     23  C   UNL     1      27.350 -36.531  -9.212  0.00  0.00    +0.030 A 
ATOM     24  C   UNL     1      28.693 -36.546  -9.603  0.00  0.00    +0.106 A 
ATOM     25  C   UNL     1      29.102 -37.284 -10.717  0.00  0.00    +0.030 A 
ATOM     26  C   UNL     1      28.171 -38.071 -11.397  0.00  0.00    +0.030 A 
BRANCH  24  27
ATOM     27  S   UNL     1      29.885 -35.580  -8.700  0.00  0.00    +0.061 S 
ATOM     28  O   UNL     1      31.023 -36.433  -8.430  0.00  0.00    -0.153 OA
ATOM     29  O   UNL     1      29.182 -34.907  -7.630  0.00  0.00    -0.153 OA
BRANCH  27  30
ATOM     30  N   UNL     1      30.369 -34.405  -9.828  0.00  0.00    -0.172 NA
ATOM     31  C   UNL     1      31.722 -34.569 -10.432  0.00  0.00    +0.137 C 
ATOM     32  C   UNL     1      31.871 -33.615 -11.624  0.00  0.00    +0.177 C 
ATOM     33  O   UNL     1      31.647 -32.252 -11.227  0.00  0.00    -0.377 OA
ATOM     34  C   UNL     1      30.315 -32.102 -10.711  0.00  0.00    +0.177 C 
ATOM     35  C   UNL     1      30.102 -32.983  -9.475  0.00  0.00    +0.137 C 
ENDBRANCH  27  30
ENDBRANCH  24  27
ENDBRANCH   2  21
BRANCH   1  36
ATOM     36  O   UNL     1      24.926 -40.964 -11.884  0.00  0.00    -0.492 OA
ATOM     37  H   UNL     1      24.535 -40.430 -12.597  0.00  0.00    +0.294 HD
ENDBRANCH   1  36
TORSDOF 8
ENDMDL
MODEL 9
REMARK minimizedAffinity -2.25121784
REMARK minimizedRMSD -1
REMARK  Name = 
REMARK  9 active torsions:
REMARK  status: ('A' for Active; 'I' for Inactive)
REMARK    1  A    between atoms: C_1  and  C_2
REMARK    2  A    between atoms: C_6  and  N_8
REMARK    3  A    between atoms: N_8  and  S_9
REMARK    4  A    between atoms: S_9  and  C_12
REMARK    5  A    between atoms: C_16  and  C_18
REMARK    6  A    between atoms: C_18  and  O_19
REMARK    7  A    between atoms: N_20  and  C_21
REMARK    8  A    between atoms: C_24  and  S_27
REMARK    9  A    between atoms: S_27  and  N_30
REMARK                            x       y       z     vdW  Elec       q    Type
REMARK                         _______ _______ _______ _____ _____    ______ ____
ROOT
ATOM      1  C   UNL     1      31.447 -36.741 -12.142  0.00  0.00    +0.220 C 
ATOM      2  N   UNL     1      31.356 -35.532 -11.702  0.00  0.00    -0.213 NA
ENDROOT
BRANCH   1   7
ATOM      3  C   UNL     1      30.252 -40.133 -11.084  0.00  0.00    +0.109 A 
ATOM      4  C   UNL     1      31.258 -40.524 -10.192  0.00  0.00    +0.029 A 
ATOM      5  C   UNL     1      32.312 -39.652  -9.916  0.00  0.00    +0.003 A 
ATOM      6  C   UNL     1      32.366 -38.404 -10.539  0.00  0.00    +0.013 A 
ATOM      7  C   UNL     1      31.368 -38.034 -11.450  0.00  0.00    +0.038 A 
ATOM      8  C   UNL     1      30.304 -38.894 -11.728  0.00  0.00    +0.042 A 
BRANCH   3   9
ATOM      9  S   UNL     1      28.925 -41.259 -11.455  0.00  0.00    +0.072 S 
ATOM     10  O   UNL     1      28.160 -40.697 -12.547  0.00  0.00    -0.150 OA
ATOM     11  O   UNL     1      29.502 -42.584 -11.554  0.00  0.00    -0.150 OA
BRANCH   9  12
ATOM     12  N   UNL     1      28.003 -41.251 -10.042  0.00  0.00    -0.216 N 
ATOM     13  H   UNL     1      28.150 -42.089  -9.482  0.00  0.00    +0.174 HD
BRANCH  12  19
ATOM     14  C   UNL     1      28.850 -38.428  -6.069  0.00  0.00    +0.044 C 
ATOM     15  C   UNL     1      28.211 -38.632  -7.412  0.00  0.00    -0.049 A 
ATOM     16  C   UNL     1      27.521 -37.585  -8.034  0.00  0.00    +0.003 A 
ATOM     17  C   UNL     1      26.961 -37.760  -9.300  0.00  0.00    +0.002 A 
ATOM     18  C   UNL     1      27.100 -38.979  -9.962  0.00  0.00    +0.024 A 
ATOM     19  C   UNL     1      27.798 -40.023  -9.356  0.00  0.00    +0.048 A 
ATOM     20  C   UNL     1      28.355 -39.852  -8.087  0.00  0.00    +0.027 A 
ENDBRANCH  12  19
ENDBRANCH   9  12
ENDBRANCH   3   9
ENDBRANCH   1   7
BRANCH   2  21
ATOM     21  C   UNL     1      31.216 -35.323 -10.323  0.00  0.00    +0.068 A 
ATOM     22  C   UNL     1      32.350 -35.085  -9.542  0.00  0.00    +0.030 A 
ATOM     23  C   UNL     1      32.228 -34.824  -8.176  0.00  0.00    +0.030 A 
ATOM     24  C   UNL     1      30.957 -34.804  -7.592  0.00  0.00    +0.106 A 
ATOM     25  C   UNL     1      29.822 -35.116  -8.346  0.00  0.00    +0.030 A 
ATOM     26  C   UNL     1      29.958 -35.376  -9.711  0.00  0.00    +0.030 A 
BRANCH  24  27
ATOM     27  S   UNL     1      30.786 -34.423  -5.862  0.00  0.00    +0.061 S 
ATOM     28  O   UNL     1      31.981 -34.891  -5.192  0.00  0.00    -0.153 OA
ATOM     29  O   UNL     1      29.473 -34.864  -5.445  0.00  0.00    -0.153 OA
BRANCH  27  30
ATOM     30  N   UNL     1      30.802 -32.725  -5.833  0.00  0.00    -0.172 NA
ATOM     31  C   UNL     1      31.903 -32.075  -5.066  0.00  0.00    +0.137 C 
ATOM     32  C   UNL     1      31.939 -30.576  -5.391  0.00  0.00    +0.177 C 
ATOM     33  O   UNL     1      30.676 -29.954  -5.102  0.00  0.00    -0.377 OA
ATOM     34  C   UNL     1      29.640 -30.548  -5.900  0.00  0.00    +0.177 C 
ATOM     35  C   UNL     1      29.499 -32.044  -5.590  0.00  0.00    +0.137 C 
ENDBRANCH  27  30
ENDBRANCH  24  27
ENDBRANCH   2  21
BRANCH   1  36
ATOM     36  O   UNL     1      31.634 -36.922 -13.459  0.00  0.00    -0.492 OA
ATOM     37  H   UNL     1      31.680 -36.040 -13.865  0.00  0.00    +0.294 HD
ENDBRANCH   1  36
TORSDOF 8
ENDMDL
MODEL 10
REMARK minimizedAffinity -2.09706092
REMARK minimizedRMSD -1
REMARK  Name = 
REMARK  9 active torsions:
REMARK  status: ('A' for Active; 'I' for Inactive)
REMARK    1  A    between atoms: C_1  and  C_2
REMARK    2  A    between atoms: C_6  and  N_8
REMARK    3  A    between atoms: N_8  and  S_9
REMARK    4  A    between atoms: S_9  and  C_12
REMARK    5  A    between atoms: C_16  and  C_18
REMARK    6  A    between atoms: C_18  and  O_19
REMARK    7  A    between atoms: N_20  and  C_21
REMARK    8  A    between atoms: C_24  and  S_27
REMARK    9  A    between atoms: S_27  and  N_30
REMARK                            x       y       z     vdW  Elec       q    Type
REMARK                         _______ _______ _______ _____ _____    ______ ____
ROOT
ATOM      1  C   UNL     1      31.351 -36.339 -11.536  0.00  0.00    +0.220 C 
ATOM      2  N   UNL     1      31.226 -35.090 -11.243  0.00  0.00    -0.213 NA
ENDROOT
BRANCH   1   7
ATOM      3  C   UNL     1      30.258 -39.593 -10.029  0.00  0.00    +0.109 A 
ATOM      4  C   UNL     1      31.309 -39.865  -9.145  0.00  0.00    +0.029 A 
ATOM      5  C   UNL     1      32.360 -38.955  -9.023  0.00  0.00    +0.003 A 
ATOM      6  C   UNL     1      32.367 -37.790  -9.792  0.00  0.00    +0.013 A 
ATOM      7  C   UNL     1      31.323 -37.542 -10.692  0.00  0.00    +0.038 A 
ATOM      8  C   UNL     1      30.262 -38.439 -10.817  0.00  0.00    +0.042 A 
BRANCH   3   9
ATOM      9  S   UNL     1      28.933 -40.769 -10.203  0.00  0.00    +0.072 S 
ATOM     10  O   UNL     1      28.537 -40.788 -11.595  0.00  0.00    -0.150 OA
ATOM     11  O   UNL     1      29.347 -41.983  -9.530  0.00  0.00    -0.150 OA
BRANCH   9  12
ATOM     12  N   UNL     1      27.700 -40.104  -9.262  0.00  0.00    -0.216 N 
ATOM     13  H   UNL     1      27.827 -40.296  -8.270  0.00  0.00    +0.174 HD
BRANCH  12  19
ATOM     14  C   UNL     1      24.649 -37.502 -12.158  0.00  0.00    +0.044 C 
ATOM     15  C   UNL     1      25.654 -37.564 -11.046  0.00  0.00    -0.049 A 
ATOM     16  C   UNL     1      25.958 -36.419 -10.302  0.00  0.00    +0.003 A 
ATOM     17  C   UNL     1      26.861 -36.483  -9.240  0.00  0.00    +0.002 A 
ATOM     18  C   UNL     1      27.458 -37.697  -8.904  0.00  0.00    +0.024 A 
ATOM     19  C   UNL     1      27.150 -38.846  -9.630  0.00  0.00    +0.048 A 
ATOM     20  C   UNL     1      26.250 -38.784 -10.696  0.00  0.00    +0.027 A 
ENDBRANCH  12  19
ENDBRANCH   9  12
ENDBRANCH   3   9
ENDBRANCH   1   7
BRANCH   2  21
ATOM     21  C   UNL     1      31.096 -34.721  -9.897  0.00  0.00    +0.068 A 
ATOM     22  C   UNL     1      32.212 -34.250  -9.199  0.00  0.00    +0.030 A 
ATOM     23  C   UNL     1      32.093 -33.829  -7.873  0.00  0.00    +0.030 A 
ATOM     24  C   UNL     1      30.845 -33.884  -7.245  0.00  0.00    +0.106 A 
ATOM     25  C   UNL     1      29.738 -34.424  -7.906  0.00  0.00    +0.030 A 
ATOM     26  C   UNL     1      29.870 -34.842  -9.232  0.00  0.00    +0.030 A 
BRANCH  24  27
ATOM     27  S   UNL     1      30.673 -33.304  -5.571  0.00  0.00    +0.061 S 
ATOM     28  O   UNL     1      31.981 -33.360  -4.953  0.00  0.00    -0.153 OA
ATOM     29  O   UNL     1      29.539 -33.987  -4.986  0.00  0.00    -0.153 OA
BRANCH  27  30
ATOM     30  N   UNL     1      30.255 -31.669  -5.766  0.00  0.00    -0.172 NA
ATOM     31  C   UNL     1      31.246 -30.660  -5.291  0.00  0.00    +0.137 C 
ATOM     32  C   UNL     1      30.851 -29.272  -5.808  0.00  0.00    +0.177 C 
ATOM     33  O   UNL     1      29.522 -28.922  -5.390  0.00  0.00    -0.377 OA
ATOM     34  C   UNL     1      28.576 -29.867  -5.913  0.00  0.00    +0.177 C 
ATOM     35  C   UNL     1      28.867 -31.280  -5.393  0.00  0.00    +0.137 C 
ENDBRANCH  27  30
ENDBRANCH  24  27
ENDBRANCH   2  21
BRANCH   1  36
ATOM     36  O   UNL     1      31.527 -36.670 -12.824  0.00  0.00    -0.492 OA
ATOM     37  H   UNL     1      31.539 -35.843 -13.334  0.00  0.00    +0.294 HD
ENDBRANCH   1  36
TORSDOF 8
ENDMDL
MODEL 11
REMARK minimizedAffinity -2.01103544
REMARK minimizedRMSD -1
REMARK  Name = 
REMARK  9 active torsions:
REMARK  status: ('A' for Active; 'I' for Inactive)
REMARK    1  A    between atoms: C_1  and  C_2
REMARK    2  A    between atoms: C_6  and  N_8
REMARK    3  A    between atoms: N_8  and  S_9
REMARK    4  A    between atoms: S_9  and  C_12
REMARK    5  A    between atoms: C_16  and  C_18
REMARK    6  A    between atoms: C_18  and  O_19
REMARK    7  A    between atoms: N_20  and  C_21
REMARK    8  A    between atoms: C_24  and  S_27
REMARK    9  A    between atoms: S_27  and  N_30
REMARK                            x       y       z     vdW  Elec       q    Type
REMARK                         _______ _______ _______ _____ _____    ______ ____
ROOT
ATOM      1  C   UNL     1      31.108 -39.837 -12.646  0.00  0.00    +0.220 C 
ATOM      2  N   UNL     1      30.744 -39.057 -13.607  0.00  0.00    -0.213 NA
ENDROOT
BRANCH   1   7
ATOM      3  C   UNL     1      30.266 -39.939  -8.994  0.00  0.00    +0.109 A 
ATOM      4  C   UNL     1      31.361 -39.274  -8.431  0.00  0.00    +0.029 A 
ATOM      5  C   UNL     1      32.360 -38.763  -9.261  0.00  0.00    +0.003 A 
ATOM      6  C   UNL     1      32.270 -38.929 -10.645  0.00  0.00    +0.013 A 
ATOM      7  C   UNL     1      31.183 -39.619 -11.195  0.00  0.00    +0.038 A 
ATOM      8  C   UNL     1      30.173 -40.127 -10.376  0.00  0.00    +0.042 A 
BRANCH   3   9
ATOM      9  S   UNL     1      29.009 -40.614  -7.931  0.00  0.00    +0.072 S 
ATOM     10  O   UNL     1      28.037 -41.287  -8.766  0.00  0.00    -0.150 OA
ATOM     11  O   UNL     1      29.686 -41.317  -6.861  0.00  0.00    -0.150 OA
BRANCH   9  12
ATOM     12  N   UNL     1      28.316 -39.243  -7.231  0.00  0.00    -0.216 N 
ATOM     13  H   UNL     1      28.625 -39.104  -6.271  0.00  0.00    +0.174 HD
BRANCH  12  19
ATOM     14  C   UNL     1      25.685 -36.953 -10.738  0.00  0.00    +0.044 C 
ATOM     15  C   UNL     1      26.815 -36.960  -9.752  0.00  0.00    -0.049 A 
ATOM     16  C   UNL     1      27.576 -35.804  -9.539  0.00  0.00    +0.003 A 
ATOM     17  C   UNL     1      28.601 -35.796  -8.593  0.00  0.00    +0.002 A 
ATOM     18  C   UNL     1      28.866 -36.938  -7.839  0.00  0.00    +0.024 A 
ATOM     19  C   UNL     1      28.104 -38.089  -8.033  0.00  0.00    +0.048 A 
ATOM     20  C   UNL     1      27.080 -38.102  -8.983  0.00  0.00    +0.027 A 
ENDBRANCH  12  19
ENDBRANCH   9  12
ENDBRANCH   3   9
ENDBRANCH   1   7
BRANCH   2  21
ATOM     21  C   UNL     1      30.398 -37.732 -13.308  0.00  0.00    +0.068 A 
ATOM     22  C   UNL     1      31.391 -36.749 -13.277  0.00  0.00    +0.030 A 
ATOM     23  C   UNL     1      31.060 -35.415 -13.032  0.00  0.00    +0.030 A 
ATOM     24  C   UNL     1      29.723 -35.068 -12.815  0.00  0.00    +0.106 A 
ATOM     25  C   UNL     1      28.731 -36.052 -12.767  0.00  0.00    +0.030 A 
ATOM     26  C   UNL     1      29.074 -37.383 -13.013  0.00  0.00    +0.030 A 
BRANCH  24  27
ATOM     27  S   UNL     1      29.285 -33.363 -12.551  0.00  0.00    +0.061 S 
ATOM     28  O   UNL     1      28.085 -33.342 -11.741  0.00  0.00    -0.153 OA
ATOM     29  O   UNL     1      29.335 -32.695 -13.834  0.00  0.00    -0.153 OA
BRANCH  27  30
ATOM     30  N   UNL     1      30.566 -32.773 -11.604  0.00  0.00    -0.172 NA
ATOM     31  C   UNL     1      30.492 -33.030 -10.137  0.00  0.00    +0.137 C 
ATOM     32  C   UNL     1      31.844 -32.705  -9.490  0.00  0.00    +0.177 C 
ATOM     33  O   UNL     1      32.229 -31.346  -9.754  0.00  0.00    -0.377 OA
ATOM     34  C   UNL     1      32.361 -31.137 -11.169  0.00  0.00    +0.177 C 
ATOM     35  C   UNL     1      31.029 -31.386 -11.887  0.00  0.00    +0.137 C 
ENDBRANCH  27  30
ENDBRANCH  24  27
ENDBRANCH   2  21
BRANCH   1  36
ATOM     36  O   UNL     1      31.487 -41.086 -12.956  0.00  0.00    -0.492 OA
ATOM     37  H   UNL     1      31.421 -41.174 -13.922  0.00  0.00    +0.294 HD
ENDBRANCH   1  36
TORSDOF 8
ENDMDL
MODEL 12
REMARK minimizedAffinity -1.53059149
REMARK minimizedRMSD -1
REMARK  Name = 
REMARK  9 active torsions:
REMARK  status: ('A' for Active; 'I' for Inactive)
REMARK    1  A    between atoms: C_1  and  C_2
REMARK    2  A    between atoms: C_6  and  N_8
REMARK    3  A    between atoms: N_8  and  S_9
REMARK    4  A    between atoms: S_9  and  C_12
REMARK    5  A    between atoms: C_16  and  C_18
REMARK    6  A    between atoms: C_18  and  O_19
REMARK    7  A    between atoms: N_20  and  C_21
REMARK    8  A    between atoms: C_24  and  S_27
REMARK    9  A    between atoms: S_27  and  N_30
REMARK                            x       y       z     vdW  Elec       q    Type
REMARK                         _______ _______ _______ _____ _____    ______ ____
ROOT
ATOM      1  C   UNL     1      22.583 -38.318 -12.289  0.00  0.00    +0.220 C 
ATOM      2  N   UNL     1      23.299 -37.245 -12.288  0.00  0.00    -0.213 NA
ENDROOT
BRANCH   1   7
ATOM      3  C   UNL     1      22.755 -41.621 -10.524  0.00  0.00    +0.109 A 
ATOM      4  C   UNL     1      23.508 -42.385 -11.423  0.00  0.00    +0.029 A 
ATOM      5  C   UNL     1      23.987 -41.798 -12.595  0.00  0.00    +0.003 A 
ATOM      6  C   UNL     1      23.701 -40.460 -12.872  0.00  0.00    +0.013 A 
ATOM      7  C   UNL     1      22.924 -39.713 -11.978  0.00  0.00    +0.038 A 
ATOM      8  C   UNL     1      22.447 -40.285 -10.799  0.00  0.00    +0.042 A 
BRANCH   3   9
ATOM      9  S   UNL     1      22.122 -42.380  -9.044  0.00  0.00    +0.072 S 
ATOM     10  O   UNL     1      23.179 -43.185  -8.472  0.00  0.00    -0.150 OA
ATOM     11  O   UNL     1      21.477 -41.338  -8.271  0.00  0.00    -0.150 OA
BRANCH   9  12
ATOM     12  N   UNL     1      20.886 -43.376  -9.617  0.00  0.00    -0.216 N 
ATOM     13  H   UNL     1      20.481 -43.949  -8.880  0.00  0.00    +0.174 HD
BRANCH  12  19
ATOM     14  C   UNL     1      17.389 -40.168 -11.011  0.00  0.00    +0.044 C 
ATOM     15  C   UNL     1      18.304 -41.316 -11.322  0.00  0.00    -0.049 A 
ATOM     16  C   UNL     1      18.388 -41.821 -12.624  0.00  0.00    +0.003 A 
ATOM     17  C   UNL     1      19.268 -42.861 -12.925  0.00  0.00    +0.002 A 
ATOM     18  C   UNL     1      20.084 -43.395 -11.928  0.00  0.00    +0.024 A 
ATOM     19  C   UNL     1      20.018 -42.888 -10.632  0.00  0.00    +0.048 A 
ATOM     20  C   UNL     1      19.134 -41.850 -10.327  0.00  0.00    +0.027 A 
ENDBRANCH  12  19
ENDBRANCH   9  12
ENDBRANCH   3   9
ENDBRANCH   1   7
BRANCH   2  21
ATOM     21  C   UNL     1      24.669 -37.347 -12.010  0.00  0.00    +0.068 A 
ATOM     22  C   UNL     1      25.577 -37.505 -13.061  0.00  0.00    +0.030 A 
ATOM     23  C   UNL     1      26.950 -37.558 -12.809  0.00  0.00    +0.030 A 
ATOM     24  C   UNL     1      27.411 -37.451 -11.493  0.00  0.00    +0.106 A 
ATOM     25  C   UNL     1      26.510 -37.369 -10.428  0.00  0.00    +0.030 A 
ATOM     26  C   UNL     1      25.140 -37.319 -10.692  0.00  0.00    +0.030 A 
BRANCH  24  27
ATOM     27  S   UNL     1      29.161 -37.466 -11.167  0.00  0.00    +0.061 S 
ATOM     28  O   UNL     1      29.831 -37.821 -12.400  0.00  0.00    -0.153 OA
ATOM     29  O   UNL     1      29.372 -38.226  -9.954  0.00  0.00    -0.153 OA
BRANCH  27  30
ATOM     30  N   UNL     1      29.510 -35.838 -10.832  0.00  0.00    -0.172 NA
ATOM     31  C   UNL     1      29.386 -35.401  -9.412  0.00  0.00    +0.137 C 
ATOM     32  C   UNL     1      30.016 -34.012  -9.246  0.00  0.00    +0.177 C 
ATOM     33  O   UNL     1      29.406 -33.059 -10.131  0.00  0.00    -0.377 OA
ATOM     34  C   UNL     1      29.595 -33.462 -11.496  0.00  0.00    +0.177 C 
ATOM     35  C   UNL     1      28.939 -34.823 -11.762  0.00  0.00    +0.137 C 
ENDBRANCH  27  30
ENDBRANCH  24  27
ENDBRANCH   2  21
BRANCH   1  36
ATOM     36  O   UNL     1      21.285 -38.210 -12.610  0.00  0.00    -0.492 OA
ATOM     37  H   UNL     1      21.115 -37.273 -12.806  0.00  0.00    +0.294 HD
ENDBRANCH   1  36
TORSDOF 8
ENDMDL
MODEL 13
REMARK minimizedAffinity -1.48246682
REMARK minimizedRMSD -1
REMARK  Name = 
REMARK  9 active torsions:
REMARK  status: ('A' for Active; 'I' for Inactive)
REMARK    1  A    between atoms: C_1  and  C_2
REMARK    2  A    between atoms: C_6  and  N_8
REMARK    3  A    between atoms: N_8  and  S_9
REMARK    4  A    between atoms: S_9  and  C_12
REMARK    5  A    between atoms: C_16  and  C_18
REMARK    6  A    between atoms: C_18  and  O_19
REMARK    7  A    between atoms: N_20  and  C_21
REMARK    8  A    between atoms: C_24  and  S_27
REMARK    9  A    between atoms: S_27  and  N_30
REMARK                            x       y       z     vdW  Elec       q    Type
REMARK                         _______ _______ _______ _____ _____    ______ ____
ROOT
ATOM      1  C   UNL     1      27.891 -28.591  -5.164  0.00  0.00    +0.220 C 
ATOM      2  N   UNL     1      28.611 -29.417  -4.484  0.00  0.00    -0.213 NA
ENDROOT
BRANCH   1   7
ATOM      3  C   UNL     1      28.290 -28.437  -8.889  0.00  0.00    +0.109 A 
ATOM      4  C   UNL     1      26.961 -28.510  -9.321  0.00  0.00    +0.029 A 
ATOM      5  C   UNL     1      25.932 -28.575  -8.380  0.00  0.00    +0.003 A 
ATOM      6  C   UNL     1      26.233 -28.583  -7.017  0.00  0.00    +0.013 A 
ATOM      7  C   UNL     1      27.568 -28.536  -6.597  0.00  0.00    +0.038 A 
ATOM      8  C   UNL     1      28.606 -28.461  -7.527  0.00  0.00    +0.042 A 
BRANCH   3   9
ATOM      9  S   UNL     1      29.601 -28.382 -10.091  0.00  0.00    +0.072 S 
ATOM     10  O   UNL     1      28.996 -28.358 -11.406  0.00  0.00    -0.150 OA
ATOM     11  O   UNL     1      30.520 -27.342  -9.675  0.00  0.00    -0.150 OA
BRANCH   9  12
ATOM     12  N   UNL     1      30.406 -29.846  -9.854  0.00  0.00    -0.216 N 
ATOM     13  H   UNL     1      30.550 -30.050  -8.867  0.00  0.00    +0.174 HD
BRANCH  12  19
ATOM     14  C   UNL     1      27.077 -32.773 -12.049  0.00  0.00    +0.044 C 
ATOM     15  C   UNL     1      28.503 -32.374 -11.805  0.00  0.00    -0.049 A 
ATOM     16  C   UNL     1      29.540 -32.988 -12.516  0.00  0.00    +0.003 A 
ATOM     17  C   UNL     1      30.864 -32.589 -12.321  0.00  0.00    +0.002 A 
ATOM     18  C   UNL     1      31.160 -31.563 -11.425  0.00  0.00    +0.024 A 
ATOM     19  C   UNL     1      30.131 -30.936 -10.724  0.00  0.00    +0.048 A 
ATOM     20  C   UNL     1      28.806 -31.336 -10.914  0.00  0.00    +0.027 A 
ENDBRANCH  12  19
ENDBRANCH   9  12
ENDBRANCH   3   9
ENDBRANCH   1   7
BRANCH   2  21
ATOM     21  C   UNL     1      29.291 -30.439  -5.162  0.00  0.00    +0.068 A 
ATOM     22  C   UNL     1      30.563 -30.193  -5.685  0.00  0.00    +0.030 A 
ATOM     23  C   UNL     1      31.278 -31.212  -6.319  0.00  0.00    +0.030 A 
ATOM     24  C   UNL     1      30.707 -32.484  -6.428  0.00  0.00    +0.106 A 
ATOM     25  C   UNL     1      29.405 -32.722  -5.978  0.00  0.00    +0.030 A 
ATOM     26  C   UNL     1      28.701 -31.695  -5.347  0.00  0.00    +0.030 A 
BRANCH  24  27
ATOM     27  S   UNL     1      31.629 -33.803  -7.190  0.00  0.00    +0.061 S 
ATOM     28  O   UNL     1      32.365 -34.481  -6.144  0.00  0.00    -0.153 OA
ATOM     29  O   UNL     1      32.306 -33.252  -8.345  0.00  0.00    -0.153 OA
BRANCH  27  30
ATOM     30  N   UNL     1      30.418 -34.856  -7.745  0.00  0.00    -0.172 NA
ATOM     31  C   UNL     1      30.597 -36.306  -7.446  0.00  0.00    +0.137 C 
ATOM     32  C   UNL     1      29.294 -37.056  -7.746  0.00  0.00    +0.177 C 
ATOM     33  O   UNL     1      28.887 -36.861  -9.110  0.00  0.00    -0.377 OA
ATOM     34  C   UNL     1      28.653 -35.465  -9.359  0.00  0.00    +0.177 C 
ATOM     35  C   UNL     1      29.931 -34.647  -9.138  0.00  0.00    +0.137 C 
ENDBRANCH  27  30
ENDBRANCH  24  27
ENDBRANCH   2  21
BRANCH   1  36
ATOM     36  O   UNL     1      27.291 -27.587  -4.507  0.00  0.00    -0.492 OA
ATOM     37  H   UNL     1      27.538 -27.670  -3.570  0.00  0.00    +0.294 HD
ENDBRANCH   1  36
TORSDOF 8
ENDMDL
MODEL 14
REMARK minimizedAffinity -1.45253134
REMARK minimizedRMSD -1
REMARK  Name = 
REMARK  9 active torsions:
REMARK  status: ('A' for Active; 'I' for Inactive)
REMARK    1  A    between atoms: C_1  and  C_2
REMARK    2  A    between atoms: C_6  and  N_8
REMARK    3  A    between atoms: N_8  and  S_9
REMARK    4  A    between atoms: S_9  and  C_12
REMARK    5  A    between atoms: C_16  and  C_18
REMARK    6  A    between atoms: C_18  and  O_19
REMARK    7  A    between atoms: N_20  and  C_21
REMARK    8  A    between atoms: C_24  and  S_27
REMARK    9  A    between atoms: S_27  and  N_30
REMARK                            x       y       z     vdW  Elec       q    Type
REMARK                         _______ _______ _______ _____ _____    ______ ____
ROOT
ATOM      1  C   UNL     1      24.383 -38.702 -11.604  0.00  0.00    +0.220 C 
ATOM      2  N   UNL     1      24.441 -37.419 -11.487  0.00  0.00    -0.213 NA
ENDROOT
BRANCH   1   7
ATOM      3  C   UNL     1      27.645 -40.522 -11.921  0.00  0.00    +0.109 A 
ATOM      4  C   UNL     1      27.409 -41.666 -11.150  0.00  0.00    +0.029 A 
ATOM      5  C   UNL     1      26.161 -41.851 -10.554  0.00  0.00    +0.003 A 
ATOM      6  C   UNL     1      25.161 -40.890 -10.717  0.00  0.00    +0.013 A 
ATOM      7  C   UNL     1      25.417 -39.737 -11.469  0.00  0.00    +0.038 A 
ATOM      8  C   UNL     1      26.658 -39.544 -12.077  0.00  0.00    +0.042 A 
BRANCH   3   9
ATOM      9  S   UNL     1      29.247 -40.275 -12.656  0.00  0.00    +0.072 S 
ATOM     10  O   UNL     1      29.847 -41.577 -12.859  0.00  0.00    -0.150 OA
ATOM     11  O   UNL     1      29.074 -39.355 -13.761  0.00  0.00    -0.150 OA
BRANCH   9  12
ATOM     12  N   UNL     1      30.093 -39.430 -11.466  0.00  0.00    -0.216 N 
ATOM     13  H   UNL     1      30.195 -38.442 -11.694  0.00  0.00    +0.174 HD
BRANCH  12  19
ATOM     14  C   UNL     1      27.465 -38.958  -7.302  0.00  0.00    +0.044 C 
ATOM     15  C   UNL     1      28.618 -39.554  -8.057  0.00  0.00    -0.049 A 
ATOM     16  C   UNL     1      29.424 -40.530  -7.461  0.00  0.00    +0.003 A 
ATOM     17  C   UNL     1      30.471 -41.116  -8.174  0.00  0.00    +0.002 A 
ATOM     18  C   UNL     1      30.711 -40.740  -9.495  0.00  0.00    +0.024 A 
ATOM     19  C   UNL     1      29.904 -39.779 -10.101  0.00  0.00    +0.048 A 
ATOM     20  C   UNL     1      28.859 -39.189  -9.388  0.00  0.00    +0.027 A 
ENDBRANCH  12  19
ENDBRANCH   9  12
ENDBRANCH   3   9
ENDBRANCH   1   7
BRANCH   2  21
ATOM     21  C   UNL     1      25.685 -36.818 -11.249  0.00  0.00    +0.068 A 
ATOM     22  C   UNL     1      26.498 -36.462 -12.328  0.00  0.00    +0.030 A 
ATOM     23  C   UNL     1      27.718 -35.816 -12.114  0.00  0.00    +0.030 A 
ATOM     24  C   UNL     1      28.120 -35.527 -10.806  0.00  0.00    +0.106 A 
ATOM     25  C   UNL     1      27.353 -35.945  -9.716  0.00  0.00    +0.030 A 
ATOM     26  C   UNL     1      26.136 -36.591  -9.943  0.00  0.00    +0.030 A 
BRANCH  24  27
ATOM     27  S   UNL     1      29.649 -34.659 -10.525  0.00  0.00    +0.061 S 
ATOM     28  O   UNL     1      29.316 -33.304 -10.140  0.00  0.00    -0.153 OA
ATOM     29  O   UNL     1      30.517 -34.926 -11.652  0.00  0.00    -0.153 OA
BRANCH  27  30
ATOM     30  N   UNL     1      30.299 -35.445  -9.166  0.00  0.00    -0.172 NA
ATOM     31  C   UNL     1      31.149 -36.642  -9.423  0.00  0.00    +0.137 C 
ATOM     32  C   UNL     1      31.883 -37.036  -8.136  0.00  0.00    +0.177 C 
ATOM     33  O   UNL     1      30.956 -37.286  -7.067  0.00  0.00    -0.377 OA
ATOM     34  C   UNL     1      30.194 -36.101  -6.789  0.00  0.00    +0.177 C 
ATOM     35  C   UNL     1      29.380 -35.671  -8.016  0.00  0.00    +0.137 C 
ENDBRANCH  27  30
ENDBRANCH  24  27
ENDBRANCH   2  21
BRANCH   1  36
ATOM     36  O   UNL     1      23.194 -39.257 -11.885  0.00  0.00    -0.492 OA
ATOM     37  H   UNL     1      22.551 -38.532 -11.965  0.00  0.00    +0.294 HD
ENDBRANCH   1  36
TORSDOF 8
ENDMDL
MODEL 15
REMARK minimizedAffinity -1.34440958
REMARK minimizedRMSD -1
REMARK  Name = 
REMARK  9 active torsions:
REMARK  status: ('A' for Active; 'I' for Inactive)
REMARK    1  A    between atoms: C_1  and  C_2
REMARK    2  A    between atoms: C_6  and  N_8
REMARK    3  A    between atoms: N_8  and  S_9
REMARK    4  A    between atoms: S_9  and  C_12
REMARK    5  A    between atoms: C_16  and  C_18
REMARK    6  A    between atoms: C_18  and  O_19
REMARK    7  A    between atoms: N_20  and  C_21
REMARK    8  A    between atoms: C_24  and  S_27
REMARK    9  A    between atoms: S_27  and  N_30
REMARK                            x       y       z     vdW  Elec       q    Type
REMARK                         _______ _______ _______ _____ _____    ______ ____
ROOT
ATOM      1  C   UNL     1      27.996 -28.811  -4.746  0.00  0.00    +0.220 C 
ATOM      2  N   UNL     1      28.925 -29.628  -4.385  0.00  0.00    -0.213 NA
ENDROOT
BRANCH   1   7
ATOM      3  C   UNL     1      27.325 -28.738  -8.434  0.00  0.00    +0.109 A 
ATOM      4  C   UNL     1      25.975 -28.368  -8.470  0.00  0.00    +0.029 A 
ATOM      5  C   UNL     1      25.298 -28.110  -7.277  0.00  0.00    +0.003 A 
ATOM      6  C   UNL     1      25.963 -28.236  -6.057  0.00  0.00    +0.013 A 
ATOM      7  C   UNL     1      27.306 -28.632  -6.031  0.00  0.00    +0.038 A 
ATOM      8  C   UNL     1      27.997 -28.884  -7.218  0.00  0.00    +0.042 A 
BRANCH   3   9
ATOM      9  S   UNL     1      28.177 -29.093  -9.955  0.00  0.00    +0.072 S 
ATOM     10  O   UNL     1      29.539 -28.622  -9.820  0.00  0.00    -0.150 OA
ATOM     11  O   UNL     1      27.896 -30.474 -10.291  0.00  0.00    -0.150 OA
BRANCH   9  12
ATOM     12  N   UNL     1      27.353 -28.155 -11.090  0.00  0.00    -0.216 N 
ATOM     13  H   UNL     1      27.924 -27.390 -11.445  0.00  0.00    +0.174 HD
BRANCH  12  19
ATOM     14  C   UNL     1      26.198 -32.111 -13.825  0.00  0.00    +0.044 C 
ATOM     15  C   UNL     1      25.885 -30.727 -13.336  0.00  0.00    -0.049 A 
ATOM     16  C   UNL     1      24.671 -30.116 -13.670  0.00  0.00    +0.003 A 
ATOM     17  C   UNL     1      24.359 -28.846 -13.183  0.00  0.00    +0.002 A 
ATOM     18  C   UNL     1      25.253 -28.182 -12.344  0.00  0.00    +0.024 A 
ATOM     19  C   UNL     1      26.458 -28.789 -11.994  0.00  0.00    +0.048 A 
ATOM     20  C   UNL     1      26.774 -30.058 -12.484  0.00  0.00    +0.027 A 
ENDBRANCH  12  19
ENDBRANCH   9  12
ENDBRANCH   3   9
ENDBRANCH   1   7
BRANCH   2  21
ATOM     21  C   UNL     1      29.473 -30.495  -5.341  0.00  0.00    +0.068 A 
ATOM     22  C   UNL     1      30.533 -30.061  -6.141  0.00  0.00    +0.030 A 
ATOM     23  C   UNL     1      31.126 -30.925  -7.064  0.00  0.00    +0.030 A 
ATOM     24  C   UNL     1      30.647 -32.234  -7.183  0.00  0.00    +0.106 A 
ATOM     25  C   UNL     1      29.539 -32.657  -6.444  0.00  0.00    +0.030 A 
ATOM     26  C   UNL     1      28.954 -31.783  -5.526  0.00  0.00    +0.030 A 
BRANCH  24  27
ATOM     27  S   UNL     1      31.428 -33.359  -8.320  0.00  0.00    +0.061 S 
ATOM     28  O   UNL     1      31.939 -34.473  -7.550  0.00  0.00    -0.153 OA
ATOM     29  O   UNL     1      32.296 -32.581  -9.178  0.00  0.00    -0.153 OA
BRANCH  27  30
ATOM     30  N   UNL     1      30.132 -33.924  -9.261  0.00  0.00    -0.172 NA
ATOM     31  C   UNL     1      29.810 -35.377  -9.160  0.00  0.00    +0.137 C 
ATOM     32  C   UNL     1      28.455 -35.649  -9.825  0.00  0.00    +0.177 C 
ATOM     33  O   UNL     1      28.456 -35.218 -11.196  0.00  0.00    -0.377 OA
ATOM     34  C   UNL     1      28.701 -33.805 -11.268  0.00  0.00    +0.177 C 
ATOM     35  C   UNL     1      30.070 -33.454 -10.673  0.00  0.00    +0.137 C 
ENDBRANCH  27  30
ENDBRANCH  24  27
ENDBRANCH   2  21
BRANCH   1  36
ATOM     36  O   UNL     1      27.521 -27.951  -3.832  0.00  0.00    -0.492 OA
ATOM     37  H   UNL     1      28.010 -28.111  -3.007  0.00  0.00    +0.294 HD
ENDBRANCH   1  36
TORSDOF 8
ENDMDL
