MODEL 1
REMARK minimizedAffinity 23.517292
REMARK minimizedRMSD -1
REMARK  Name = 
REMARK  15 active torsions:
REMARK  status: ('A' for Active; 'I' for Inactive)
REMARK    1  A    between atoms: C_1  and  O_2
REMARK    2  A    between atoms: O_2  and  C_3
REMARK    3  A    between atoms: C_6  and  C_7
REMARK    4  A    between atoms: C_9  and  O_10
REMARK    5  A    between atoms: O_10  and  C_11
REMARK    6  A    between atoms: C_12  and  O_13
REMARK    7  A    between atoms: C_14  and  C_15
REMARK    8  A    between atoms: C_17  and  C_18
REMARK    9  A    between atoms: C_19  and  O_20
REMARK   10  A    between atoms: O_20  and  C_21
REMARK   11  A    between atoms: C_21  and  O_23
REMARK   12  A    between atoms: C_24  and  O_25
REMARK   13  A    between atoms: O_25  and  C_26
REMARK   14  A    between atoms: C_30  and  C_31
REMARK   15  A    between atoms: C_32  and  O_33
REMARK                            x       y       z     vdW  Elec       q    Type
REMARK                         _______ _______ _______ _____ _____    ______ ____
ROOT
ATOM      1  C   UNL     1      46.188 -41.749  71.003  0.00  0.00    +0.173 C 
ATOM      2  C   UNL     1      46.362 -42.880  71.711  0.00  0.00    +0.047 C 
ATOM      3  C   UNL     1      47.634 -43.699  71.676  0.00  0.00    +0.046 C 
ATOM      4  C   UNL     1      47.483 -45.109  71.046  0.00  0.00    -0.007 C 
ATOM      5  C   UNL     1      46.956 -45.025  69.610  0.00  0.00    +0.008 C 
ATOM      6  C   UNL     1      48.850 -45.832  71.136  0.00  0.00    +0.037 C 
ATOM      7  C   UNL     1      48.889 -47.341  70.790  0.00  0.00    +0.147 C 
ATOM      8  C   UNL     1      47.964 -48.183  71.711  0.00  0.00    +0.150 C 
ATOM      9  C   UNL     1      47.933 -49.696  71.357  0.00  0.00    +0.040 C 
ATOM     10  C   UNL     1      49.333 -50.332  71.348  0.00  0.00    +0.014 C 
ATOM     11  C   UNL     1      47.062 -50.478  72.332  0.00  0.00    -0.019 C 
ATOM     12  C   UNL     1      45.734 -50.738  72.317  0.00  0.00    -0.033 C 
ATOM     13  C   UNL     1      45.193 -51.665  73.389  0.00  0.00    +0.042 C 
ATOM     14  C   UNL     1      44.668 -50.262  71.313  0.00  0.00    +0.236 C 
ATOM     15  C   UNL     1      43.442 -49.492  71.924  0.00  0.00    +0.186 C 
ATOM     16  C   UNL     1      43.828 -48.392  72.889  0.00  0.00    +0.008 C 
ATOM     17  C   UNL     1      43.654 -47.067  72.753  0.00  0.00    -0.001 C 
ATOM     18  C   UNL     1      43.136 -46.394  71.581  0.00  0.00    +0.008 C 
ATOM     19  C   UNL     1      42.600 -45.159  71.541  0.00  0.00    +0.011 C 
ATOM     20  C   UNL     1      42.097 -44.539  70.274  0.00  0.00    +0.049 C 
ATOM     21  C   UNL     1      42.373 -44.363  72.771  0.00  0.00    +0.216 C 
ATOM     22  N   UNL     1      42.889 -43.284  73.235  0.00  0.00    -0.209 NA
ATOM     23  C   UNL     1      43.940 -42.746  72.530  0.00  0.00    +0.118 C 
ATOM     24  C   UNL     1      43.791 -41.618  71.832  0.00  0.00    +0.086 C 
ATOM     25  C   UNL     1      44.885 -41.013  71.063  0.00  0.00    +0.223 C 
ATOM     26  O   UNL     1      44.684 -39.955  70.477  0.00  0.00    -0.284 OA
ATOM     27  C   UNL     1      45.295 -43.380  72.624  0.00  0.00    +0.211 C 
ATOM     28  O   UNL     1      45.519 -44.286  73.422  0.00  0.00    -0.285 OA
ENDROOT
BRANCH   7  29
ATOM     29  O   UNL     1      48.561 -47.594  69.422  0.00  0.00    -0.377 OA
ATOM     30  C   UNL     1      49.639 -47.379  68.523  0.00  0.00    +0.194 C 
ENDBRANCH   7  29
BRANCH   8  31
ATOM     31  O   UNL     1      48.392 -47.999  73.071  0.00  0.00    -0.389 OA
ATOM     32  H   UNL     1      47.653 -48.302  73.628  0.00  0.00    +0.210 HD
ENDBRANCH   8  31
BRANCH  21  33
ATOM     33  O   UNL     1      41.365 -44.903  73.478  0.00  0.00    -0.492 OA
ATOM     34  H   UNL     1      41.263 -44.368  74.281  0.00  0.00    +0.294 HD
ENDBRANCH  21  33
BRANCH   1  36
ATOM     35  C   UNL     1      48.197 -40.509  70.791  0.00  0.00    +0.277 C 
ATOM     36  O   UNL     1      47.204 -41.314  70.160  0.00  0.00    -0.491 OA
ENDBRANCH   1  36
BRANCH  15  37
ATOM     37  O   UNL     1      42.593 -50.437  72.602  0.00  0.00    -0.372 OA
ATOM     38  C   UNL     1      43.316 -51.512  73.194  0.00  0.00    +0.195 C 
ENDBRANCH  15  37
BRANCH  14  39
ATOM     39  O   UNL     1      45.253 -49.434  70.289  0.00  0.00    -0.439 OA
BRANCH  39  40
ATOM     40  C   UNL     1      45.695 -49.966  69.141  0.00  0.00    +0.381 C 
ATOM     41  N   UNL     1      45.654 -51.175  68.728  0.00  0.00    -0.233 NA
ATOM     42  H   UNL     1      45.244 -51.798  69.423  0.00  0.00    +0.193 HD
BRANCH  40  43
ATOM     43  O   UNL     1      46.227 -49.042  68.345  0.00  0.00    -0.466 OA
ATOM     44  H   UNL     1      46.551 -49.504  67.557  0.00  0.00    +0.297 HD
ENDBRANCH  40  43
ENDBRANCH  39  40
ENDBRANCH  14  39
TORSDOF 8
ENDMDL
MODEL 2
REMARK minimizedAffinity 25.8684139
REMARK minimizedRMSD -1
REMARK  Name = 
REMARK  15 active torsions:
REMARK  status: ('A' for Active; 'I' for Inactive)
REMARK    1  A    between atoms: C_1  and  O_2
REMARK    2  A    between atoms: O_2  and  C_3
REMARK    3  A    between atoms: C_6  and  C_7
REMARK    4  A    between atoms: C_9  and  O_10
REMARK    5  A    between atoms: O_10  and  C_11
REMARK    6  A    between atoms: C_12  and  O_13
REMARK    7  A    between atoms: C_14  and  C_15
REMARK    8  A    between atoms: C_17  and  C_18
REMARK    9  A    between atoms: C_19  and  O_20
REMARK   10  A    between atoms: O_20  and  C_21
REMARK   11  A    between atoms: C_21  and  O_23
REMARK   12  A    between atoms: C_24  and  O_25
REMARK   13  A    between atoms: O_25  and  C_26
REMARK   14  A    between atoms: C_30  and  C_31
REMARK   15  A    between atoms: C_32  and  O_33
REMARK                            x       y       z     vdW  Elec       q    Type
REMARK                         _______ _______ _______ _____ _____    ______ ____
ROOT
ATOM      1  C   UNL     1      41.019 -39.030  71.205  0.00  0.00    +0.173 C 
ATOM      2  C   UNL     1      42.022 -39.650  71.851  0.00  0.00    +0.047 C 
ATOM      3  C   UNL     1      43.464 -39.195  71.788  0.00  0.00    +0.046 C 
ATOM      4  C   UNL     1      44.428 -40.182  71.078  0.00  0.00    -0.007 C 
ATOM      5  C   UNL     1      43.977 -40.467  69.643  0.00  0.00    +0.008 C 
ATOM      6  C   UNL     1      45.861 -39.598  71.147  0.00  0.00    +0.037 C 
ATOM      7  C   UNL     1      47.032 -40.517  70.719  0.00  0.00    +0.147 C 
ATOM      8  C   UNL     1      47.118 -41.807  71.579  0.00  0.00    +0.150 C 
ATOM      9  C   UNL     1      48.247 -42.781  71.141  0.00  0.00    +0.040 C 
ATOM     10  C   UNL     1      49.631 -42.111  71.117  0.00  0.00    +0.014 C 
ATOM     11  C   UNL     1      48.323 -43.994  72.059  0.00  0.00    -0.019 C 
ATOM     12  C   UNL     1      47.672 -45.180  72.012  0.00  0.00    -0.033 C 
ATOM     13  C   UNL     1      48.073 -46.237  73.023  0.00  0.00    +0.042 C 
ATOM     14  C   UNL     1      46.590 -45.648  71.020  0.00  0.00    +0.236 C 
ATOM     15  C   UNL     1      45.234 -46.126  71.656  0.00  0.00    +0.186 C 
ATOM     16  C   UNL     1      44.670 -45.171  72.687  0.00  0.00    +0.008 C 
ATOM     17  C   UNL     1      43.537 -44.453  72.621  0.00  0.00    -0.001 C 
ATOM     18  C   UNL     1      42.649 -44.367  71.482  0.00  0.00    +0.008 C 
ATOM     19  C   UNL     1      41.357 -43.988  71.503  0.00  0.00    +0.011 C 
ATOM     20  C   UNL     1      40.516 -43.920  70.266  0.00  0.00    +0.049 C 
ATOM     21  C   UNL     1      40.643 -43.711  72.772  0.00  0.00    +0.216 C 
ATOM     22  N   UNL     1      40.160 -42.646  73.303  0.00  0.00    -0.209 NA
ATOM     23  C   UNL     1      40.396 -41.463  72.643  0.00  0.00    +0.118 C 
ATOM     24  C   UNL     1      39.412 -40.826  72.006  0.00  0.00    +0.086 C 
ATOM     25  C   UNL     1      39.622 -39.563  71.287  0.00  0.00    +0.223 C 
ATOM     26  O   UNL     1      38.661 -39.015  70.759  0.00  0.00    -0.284 OA
ATOM     27  C   UNL     1      41.753 -40.831  72.720  0.00  0.00    +0.211 C 
ATOM     28  O   UNL     1      42.619 -41.275  73.469  0.00  0.00    -0.285 OA
ENDROOT
BRANCH   7  29
ATOM     29  O   UNL     1      46.970 -40.867  69.334  0.00  0.00    -0.377 OA
ATOM     30  C   UNL     1      47.947 -40.219  68.533  0.00  0.00    +0.194 C 
ENDBRANCH   7  29
BRANCH   8  31
ATOM     31  O   UNL     1      47.297 -41.423  72.952  0.00  0.00    -0.389 OA
ATOM     32  H   UNL     1      47.074 -42.210  73.481  0.00  0.00    +0.210 HD
ENDBRANCH   8  31
BRANCH  21  33
ATOM     33  O   UNL     1      40.436 -44.863  73.434  0.00  0.00    -0.492 OA
ATOM     34  H   UNL     1      39.986 -44.637  74.264  0.00  0.00    +0.294 HD
ENDBRANCH  21  33
BRANCH   1  36
ATOM     35  C   UNL     1      42.621 -37.927  69.849  0.00  0.00    +0.277 C 
ATOM     36  O   UNL     1      41.306 -37.932  70.401  0.00  0.00    -0.491 OA
ENDBRANCH   1  36
BRANCH  15  37
ATOM     37  O   UNL     1      45.439 -47.413  72.269  0.00  0.00    -0.372 OA
ATOM     38  C   UNL     1      45.079 -48.499  71.419  0.00  0.00    +0.195 C 
ENDBRANCH  15  37
BRANCH  14  39
ATOM     39  O   UNL     1      46.294 -44.622  70.053  0.00  0.00    -0.439 OA
BRANCH  39  40
ATOM     40  C   UNL     1      46.995 -44.526  68.914  0.00  0.00    +0.381 C 
ATOM     41  N   UNL     1      47.063 -43.568  68.071  0.00  0.00    -0.233 NA
ATOM     42  H   UNL     1      46.451 -42.794  68.329  0.00  0.00    +0.193 HD
BRANCH  40  43
ATOM     43  O   UNL     1      47.725 -45.617  68.694  0.00  0.00    -0.466 OA
ATOM     44  H   UNL     1      48.172 -45.487  67.844  0.00  0.00    +0.297 HD
ENDBRANCH  40  43
ENDBRANCH  39  40
ENDBRANCH  14  39
TORSDOF 8
ENDMDL
