MODEL 1
REMARK minimizedAffinity -2.74559999
REMARK minimizedRMSD -1
REMARK  Name = 
REMARK  15 active torsions:
REMARK  status: ('A' for Active; 'I' for Inactive)
REMARK    1  A    between atoms: C_1  and  O_2
REMARK    2  A    between atoms: O_2  and  C_3
REMARK    3  A    between atoms: C_6  and  C_7
REMARK    4  A    between atoms: C_9  and  O_10
REMARK    5  A    between atoms: O_10  and  C_11
REMARK    6  A    between atoms: C_12  and  O_13
REMARK    7  A    between atoms: C_14  and  C_15
REMARK    8  A    between atoms: C_17  and  C_18
REMARK    9  A    between atoms: C_19  and  O_20
REMARK   10  A    between atoms: O_20  and  C_21
REMARK   11  A    between atoms: C_21  and  O_23
REMARK   12  A    between atoms: C_24  and  O_25
REMARK   13  A    between atoms: O_25  and  C_26
REMARK   14  A    between atoms: C_30  and  C_31
REMARK   15  A    between atoms: C_32  and  O_33
REMARK                            x       y       z     vdW  Elec       q    Type
REMARK                         _______ _______ _______ _____ _____    ______ ____
ROOT
ATOM      1  C   UNL     1       7.064  -3.144  -9.777  0.00  0.00    +0.173 C 
ATOM      2  C   UNL     1       7.990  -2.264  -9.356  0.00  0.00    +0.047 C 
ATOM      3  C   UNL     1       7.863  -1.466  -8.076  0.00  0.00    +0.046 C 
ATOM      4  C   UNL     1       7.710   0.065  -8.276  0.00  0.00    -0.007 C 
ATOM      5  C   UNL     1       6.491   0.396  -9.142  0.00  0.00    +0.008 C 
ATOM      6  C   UNL     1       7.648   0.735  -6.880  0.00  0.00    +0.037 C 
ATOM      7  C   UNL     1       7.738   2.280  -6.821  0.00  0.00    +0.147 C 
ATOM      8  C   UNL     1       9.061   2.819  -7.431  0.00  0.00    +0.150 C 
ATOM      9  C   UNL     1       9.163   4.370  -7.441  0.00  0.00    +0.040 C 
ATOM     10  C   UNL     1       8.976   4.985  -6.044  0.00  0.00    +0.014 C 
ATOM     11  C   UNL     1      10.504   4.837  -7.990  0.00  0.00    -0.019 C 
ATOM     12  C   UNL     1      10.901   5.087  -9.259  0.00  0.00    -0.033 C 
ATOM     13  C   UNL     1      12.289   5.666  -9.455  0.00  0.00    +0.042 C 
ATOM     14  C   UNL     1      10.108   4.917 -10.569  0.00  0.00    +0.236 C 
ATOM     15  C   UNL     1      10.771   4.001 -11.660  0.00  0.00    +0.186 C 
ATOM     16  C   UNL     1      11.261   2.671 -11.129  0.00  0.00    +0.008 C 
ATOM     17  C   UNL     1      10.810   1.441 -11.425  0.00  0.00    -0.001 C 
ATOM     18  C   UNL     1       9.668   1.131 -12.259  0.00  0.00    +0.008 C 
ATOM     19  C   UNL     1       9.423  -0.041 -12.875  0.00  0.00    +0.011 C 
ATOM     20  C   UNL     1       8.205  -0.272 -13.714  0.00  0.00    +0.049 C 
ATOM     21  C   UNL     1      10.398  -1.157 -12.850  0.00  0.00    +0.216 C 
ATOM     22  N   UNL     1      10.397  -2.324 -12.314  0.00  0.00    -0.209 NA
ATOM     23  C   UNL     1       9.327  -2.634 -11.508  0.00  0.00    +0.118 C 
ATOM     24  C   UNL     1       8.404  -3.513 -11.903  0.00  0.00    +0.086 C 
ATOM     25  C   UNL     1       7.245  -3.869 -11.074  0.00  0.00    +0.223 C 
ATOM     26  O   UNL     1       6.459  -4.714 -11.487  0.00  0.00    -0.284 OA
ATOM     27  C   UNL     1       9.246  -2.050 -10.129  0.00  0.00    +0.211 C 
ATOM     28  O   UNL     1      10.181  -1.411  -9.654  0.00  0.00    -0.285 OA
ENDROOT
BRANCH   7  29
ATOM     29  O   UNL     1       6.625   2.914  -7.454  0.00  0.00    -0.377 OA
ATOM     30  C   UNL     1       5.526   3.149  -6.585  0.00  0.00    +0.194 C 
ENDBRANCH   7  29
BRANCH   8  31
ATOM     31  O   UNL     1      10.160   2.254  -6.698  0.00  0.00    -0.389 OA
ATOM     32  H   UNL     1      10.948   2.381  -7.256  0.00  0.00    +0.210 HD
ENDBRANCH   8  31
BRANCH  21  33
ATOM     33  O   UNL     1      11.460  -0.846 -13.614  0.00  0.00    -0.492 OA
ATOM     34  H   UNL     1      12.081  -1.590 -13.556  0.00  0.00    +0.294 HD
ENDBRANCH  21  33
BRANCH   1  36
ATOM     35  C   UNL     1       5.870  -4.508  -8.249  0.00  0.00    +0.277 C 
ATOM     36  O   UNL     1       5.904  -3.316  -9.031  0.00  0.00    -0.491 OA
ENDBRANCH   1  36
BRANCH  15  37
ATOM     37  O   UNL     1      11.878   4.709 -12.249  0.00  0.00    -0.372 OA
ATOM     38  C   UNL     1      11.475   5.648 -13.242  0.00  0.00    +0.195 C 
ENDBRANCH  15  37
BRANCH  14  39
ATOM     39  O   UNL     1       8.781   4.419 -10.311  0.00  0.00    -0.439 OA
BRANCH  39  40
ATOM     40  C   UNL     1       7.798   4.582 -11.207  0.00  0.00    +0.381 C 
ATOM     41  N   UNL     1       7.417   5.634 -11.825  0.00  0.00    -0.233 NA
ATOM     42  H   UNL     1       7.949   6.454 -11.538  0.00  0.00    +0.193 HD
BRANCH  40  43
ATOM     43  O   UNL     1       7.175   3.434 -11.465  0.00  0.00    -0.466 OA
ATOM     44  H   UNL     1       6.462   3.638 -12.090  0.00  0.00    +0.297 HD
ENDBRANCH  40  43
ENDBRANCH  39  40
ENDBRANCH  14  39
TORSDOF 8
ENDMDL
MODEL 2
REMARK minimizedAffinity -0.487664759
REMARK minimizedRMSD -1
REMARK  Name = 
REMARK  15 active torsions:
REMARK  status: ('A' for Active; 'I' for Inactive)
REMARK    1  A    between atoms: C_1  and  O_2
REMARK    2  A    between atoms: O_2  and  C_3
REMARK    3  A    between atoms: C_6  and  C_7
REMARK    4  A    between atoms: C_9  and  O_10
REMARK    5  A    between atoms: O_10  and  C_11
REMARK    6  A    between atoms: C_12  and  O_13
REMARK    7  A    between atoms: C_14  and  C_15
REMARK    8  A    between atoms: C_17  and  C_18
REMARK    9  A    between atoms: C_19  and  O_20
REMARK   10  A    between atoms: O_20  and  C_21
REMARK   11  A    between atoms: C_21  and  O_23
REMARK   12  A    between atoms: C_24  and  O_25
REMARK   13  A    between atoms: O_25  and  C_26
REMARK   14  A    between atoms: C_30  and  C_31
REMARK   15  A    between atoms: C_32  and  O_33
REMARK                            x       y       z     vdW  Elec       q    Type
REMARK                         _______ _______ _______ _____ _____    ______ ____
ROOT
ATOM      1  C   UNL     1       7.462  -9.649  -9.230  0.00  0.00    +0.173 C 
ATOM      2  C   UNL     1       6.868  -8.488  -9.560  0.00  0.00    +0.047 C 
ATOM      3  C   UNL     1       6.882  -7.911 -10.958  0.00  0.00    +0.046 C 
ATOM      4  C   UNL     1       7.671  -6.582 -11.106  0.00  0.00    -0.007 C 
ATOM      5  C   UNL     1       9.129  -6.747 -10.667  0.00  0.00    +0.008 C 
ATOM      6  C   UNL     1       7.543  -6.100 -12.573  0.00  0.00    +0.037 C 
ATOM      7  C   UNL     1       8.044  -4.673 -12.906  0.00  0.00    +0.147 C 
ATOM      8  C   UNL     1       7.301  -3.579 -12.091  0.00  0.00    +0.150 C 
ATOM      9  C   UNL     1       7.817  -2.138 -12.357  0.00  0.00    +0.040 C 
ATOM     10  C   UNL     1       7.774  -1.758 -13.846  0.00  0.00    +0.014 C 
ATOM     11  C   UNL     1       7.010  -1.105 -11.580  0.00  0.00    -0.019 C 
ATOM     12  C   UNL     1       7.166  -0.624 -10.325  0.00  0.00    -0.033 C 
ATOM     13  C   UNL     1       6.250   0.505  -9.892  0.00  0.00    +0.042 C 
ATOM     14  C   UNL     1       8.201  -1.027  -9.258  0.00  0.00    +0.236 C 
ATOM     15  C   UNL     1       7.618  -1.496  -7.876  0.00  0.00    +0.186 C 
ATOM     16  C   UNL     1       6.510  -2.521  -7.993  0.00  0.00    +0.008 C 
ATOM     17  C   UNL     1       6.518  -3.802  -7.592  0.00  0.00    -0.001 C 
ATOM     18  C   UNL     1       7.650  -4.513  -7.038  0.00  0.00    +0.008 C 
ATOM     19  C   UNL     1       7.603  -5.632  -6.291  0.00  0.00    +0.011 C 
ATOM     20  C   UNL     1       8.834  -6.305  -5.768  0.00  0.00    +0.049 C 
ATOM     21  C   UNL     1       6.319  -6.223  -5.845  0.00  0.00    +0.216 C 
ATOM     22  N   UNL     1       5.699  -7.311  -6.125  0.00  0.00    -0.209 NA
ATOM     23  C   UNL     1       6.249  -8.103  -7.105  0.00  0.00    +0.118 C 
ATOM     24  C   UNL     1       6.833  -9.264  -6.800  0.00  0.00    +0.086 C 
ATOM     25  C   UNL     1       7.436 -10.137  -7.815  0.00  0.00    +0.223 C 
ATOM     26  O   UNL     1       7.919 -11.207  -7.464  0.00  0.00    -0.284 OA
ATOM     27  C   UNL     1       6.109  -7.705  -8.544  0.00  0.00    +0.211 C 
ATOM     28  O   UNL     1       5.397  -6.761  -8.875  0.00  0.00    -0.285 OA
ENDROOT
BRANCH   7  29
ATOM     29  O   UNL     1       9.454  -4.535 -12.719  0.00  0.00    -0.377 OA
ATOM     30  C   UNL     1      10.232  -5.150 -13.736  0.00  0.00    +0.194 C 
ENDBRANCH   7  29
BRANCH   8  31
ATOM     31  O   UNL     1       5.898  -3.668 -12.390  0.00  0.00    -0.389 OA
ATOM     32  H   UNL     1       5.442  -3.178 -11.682  0.00  0.00    +0.210 HD
ENDBRANCH   8  31
BRANCH  21  33
ATOM     33  O   UNL     1       5.762  -5.436  -4.907  0.00  0.00    -0.492 OA
ATOM     34  H   UNL     1       4.918  -5.844  -4.657  0.00  0.00    +0.294 HD
ENDBRANCH  21  33
BRANCH   1  36
ATOM     35  C   UNL     1       9.560 -10.490  -9.948  0.00  0.00    +0.277 C 
ATOM     36  O   UNL     1       8.164 -10.352 -10.203  0.00  0.00    -0.491 OA
ENDBRANCH   1  36
BRANCH  15  37
ATOM     37  O   UNL     1       7.120  -0.344  -7.170  0.00  0.00    -0.372 OA
ATOM     38  C   UNL     1       8.132   0.340  -6.435  0.00  0.00    +0.195 C 
ENDBRANCH  15  37
BRANCH  14  39
ATOM     39  O   UNL     1       9.076  -2.062  -9.750  0.00  0.00    -0.439 OA
BRANCH  39  40
ATOM     40  C   UNL     1      10.308  -1.771 -10.190  0.00  0.00    +0.381 C 
ATOM     41  N   UNL     1      10.926  -0.652 -10.218  0.00  0.00    -0.233 NA
ATOM     42  H   UNL     1      10.343   0.110  -9.874  0.00  0.00    +0.193 HD
BRANCH  40  43
ATOM     43  O   UNL     1      10.939  -2.856 -10.632  0.00  0.00    -0.466 OA
ATOM     44  H   UNL     1      11.802  -2.561 -10.961  0.00  0.00    +0.297 HD
ENDBRANCH  40  43
ENDBRANCH  39  40
ENDBRANCH  14  39
TORSDOF 8
ENDMDL
