MODEL 1
REMARK minimizedAffinity -2.60080218
REMARK minimizedRMSD -1
REMARK  Name = 
REMARK  3 active torsions:
REMARK  status: ('A' for Active; 'I' for Inactive)
REMARK    1  A    between atoms: C_3  and  N_15
REMARK    2  A    between atoms: C_21  and  O_22
REMARK    3  A    between atoms: C_21  and  N_23
REMARK                            x       y       z     vdW  Elec       q    Type
REMARK                         _______ _______ _______ _____ _____    ______ ____
ROOT
ATOM      1  C   UNL     1      17.546 -12.532  15.853  0.00  0.00    +0.224 A 
ATOM      2  N   UNL     1      17.097 -12.067  17.025  0.00  0.00    -0.220 NA
ATOM      3  C   UNL     1      17.164 -10.736  17.281  0.00  0.00    +0.133 A 
ATOM      4  C   UNL     1      17.655  -9.877  16.264  0.00  0.00    +0.051 A 
ATOM      5  C   UNL     1      17.779  -8.429  16.124  0.00  0.00    -0.025 A 
ATOM      6  C   UNL     1      18.401  -8.084  14.933  0.00  0.00    -0.004 A 
ATOM      7  S   UNL     1      18.745  -9.444  13.963  0.00  0.00    -0.073 S 
ATOM      8  C   UNL     1      18.101 -10.513  15.114  0.00  0.00    +0.114 A 
ATOM      9  N   UNL     1      18.079 -11.830  14.855  0.00  0.00    -0.228 NA
ATOM     10  C   UNL     1      18.760  -6.712  14.444  0.00  0.00    +0.043 C 
ATOM     11  C   UNL     1      17.535  -5.807  14.309  0.00  0.00    +0.005 C 
ATOM     12  C   UNL     1      16.982  -5.310  15.646  0.00  0.00    +0.001 C 
ATOM     13  C   UNL     1      16.325  -6.385  16.513  0.00  0.00    +0.005 C 
ATOM     14  C   UNL     1      17.300  -7.401  17.114  0.00  0.00    +0.037 C 
ENDROOT
BRANCH   3  15
ATOM     15  N   UNL     1      16.767 -10.287  18.542  0.00  0.00    -0.310 N 
ATOM     16  C   UNL     1      17.448 -10.985  19.637  0.00  0.00    +0.107 C 
ATOM     17  C   UNL     1      17.179 -10.268  20.961  0.00  0.00    +0.023 C 
ATOM     18  C   UNL     1      15.684 -10.043  21.178  0.00  0.00    +0.039 C 
ATOM     19  C   UNL     1      15.100  -9.329  19.978  0.00  0.00    +0.004 C 
ATOM     20  C   UNL     1      15.324 -10.115  18.703  0.00  0.00    +0.142 C 
ATOM     21  C   UNL     1      14.461  -8.145  20.049  0.00  0.00    +0.175 C 
BRANCH  21  22
ATOM     22  N   UNL     1      14.171  -7.459  21.173  0.00  0.00    -0.330 N 
ATOM     23  H   UNL     1      13.637  -6.606  21.065  0.00  0.00    +0.145 HD
ATOM     24  H   UNL     1      14.369  -7.819  22.093  0.00  0.00    +0.145 HD
ENDBRANCH  21  22
BRANCH  21  25
ATOM     25  O   UNL     1      14.017  -7.481  18.937  0.00  0.00    -0.495 OA
ATOM     26  H   UNL     1      14.623  -7.682  18.206  0.00  0.00    +0.293 HD
ENDBRANCH  21  25
ENDBRANCH   3  15
TORSDOF 3
ENDMDL
MODEL 2
REMARK minimizedAffinity -1.68375611
REMARK minimizedRMSD -1
REMARK  Name = 
REMARK  3 active torsions:
REMARK  status: ('A' for Active; 'I' for Inactive)
REMARK    1  A    between atoms: C_3  and  N_15
REMARK    2  A    between atoms: C_21  and  O_22
REMARK    3  A    between atoms: C_21  and  N_23
REMARK                            x       y       z     vdW  Elec       q    Type
REMARK                         _______ _______ _______ _____ _____    ______ ____
ROOT
ATOM      1  C   UNL     1      13.487  -7.461  20.115  0.00  0.00    +0.224 A 
ATOM      2  N   UNL     1      14.441  -6.868  19.389  0.00  0.00    -0.220 NA
ATOM      3  C   UNL     1      15.629  -7.499  19.212  0.00  0.00    +0.133 A 
ATOM      4  C   UNL     1      15.791  -8.799  19.756  0.00  0.00    +0.051 A 
ATOM      5  C   UNL     1      16.845  -9.808  19.693  0.00  0.00    -0.025 A 
ATOM      6  C   UNL     1      16.538 -10.914  20.473  0.00  0.00    -0.004 A 
ATOM      7  S   UNL     1      14.995 -10.795  21.188  0.00  0.00    -0.073 S 
ATOM      8  C   UNL     1      14.717  -9.268  20.501  0.00  0.00    +0.114 A 
ATOM      9  N   UNL     1      13.548  -8.645  20.720  0.00  0.00    -0.228 NA
ATOM     10  C   UNL     1      17.378 -12.133  20.715  0.00  0.00    +0.043 C 
ATOM     11  C   UNL     1      17.706 -12.876  19.420  0.00  0.00    +0.005 C 
ATOM     12  C   UNL     1      18.761 -12.181  18.556  0.00  0.00    +0.001 C 
ATOM     13  C   UNL     1      18.305 -10.871  17.910  0.00  0.00    +0.005 C 
ATOM     14  C   UNL     1      18.114  -9.711  18.891  0.00  0.00    +0.037 C 
ENDROOT
BRANCH   3  15
ATOM     15  N   UNL     1      16.638  -6.823  18.521  0.00  0.00    -0.310 N 
ATOM     16  C   UNL     1      17.522  -6.059  19.407  0.00  0.00    +0.107 C 
ATOM     17  C   UNL     1      18.748  -5.577  18.631  0.00  0.00    +0.023 C 
ATOM     18  C   UNL     1      18.345  -4.851  17.348  0.00  0.00    +0.039 C 
ATOM     19  C   UNL     1      17.428  -5.738  16.533  0.00  0.00    +0.004 C 
ATOM     20  C   UNL     1      16.191  -6.125  17.318  0.00  0.00    +0.142 C 
ATOM     21  C   UNL     1      17.688  -6.124  15.268  0.00  0.00    +0.175 C 
BRANCH  21  22
ATOM     22  N   UNL     1      18.734  -5.732  14.513  0.00  0.00    -0.330 N 
ATOM     23  H   UNL     1      18.762  -6.070  13.559  0.00  0.00    +0.145 HD
ATOM     24  H   UNL     1      19.403  -5.047  14.827  0.00  0.00    +0.145 HD
ENDBRANCH  21  22
BRANCH  21  25
ATOM     25  O   UNL     1      16.883  -6.994  14.584  0.00  0.00    -0.495 OA
ATOM     26  H   UNL     1      16.490  -7.607  15.226  0.00  0.00    +0.293 HD
ENDBRANCH  21  25
ENDBRANCH   3  15
TORSDOF 3
ENDMDL
MODEL 3
REMARK minimizedAffinity 0.0654341727
REMARK minimizedRMSD -1
REMARK  Name = 
REMARK  3 active torsions:
REMARK  status: ('A' for Active; 'I' for Inactive)
REMARK    1  A    between atoms: C_3  and  N_15
REMARK    2  A    between atoms: C_21  and  O_22
REMARK    3  A    between atoms: C_21  and  N_23
REMARK                            x       y       z     vdW  Elec       q    Type
REMARK                         _______ _______ _______ _____ _____    ______ ____
ROOT
ATOM      1  C   UNL     1      16.108  -9.713  17.543  0.00  0.00    +0.224 A 
ATOM      2  N   UNL     1      14.842  -9.586  17.957  0.00  0.00    -0.220 NA
ATOM      3  C   UNL     1      14.535  -8.630  18.869  0.00  0.00    +0.133 A 
ATOM      4  C   UNL     1      15.564  -7.755  19.304  0.00  0.00    +0.051 A 
ATOM      5  C   UNL     1      15.606  -6.577  20.165  0.00  0.00    -0.025 A 
ATOM      6  C   UNL     1      16.903  -6.112  20.330  0.00  0.00    -0.004 A 
ATOM      7  S   UNL     1      18.031  -6.999  19.408  0.00  0.00    -0.073 S 
ATOM      8  C   UNL     1      16.827  -8.029  18.798  0.00  0.00    +0.114 A 
ATOM      9  N   UNL     1      17.160  -8.993  17.925  0.00  0.00    -0.228 NA
ATOM     10  C   UNL     1      17.371  -4.965  21.175  0.00  0.00    +0.043 C 
ATOM     11  C   UNL     1      16.726  -3.642  20.762  0.00  0.00    +0.005 C 
ATOM     12  C   UNL     1      15.263  -3.506  21.187  0.00  0.00    +0.001 C 
ATOM     13  C   UNL     1      14.288  -4.426  20.450  0.00  0.00    +0.005 C 
ATOM     14  C   UNL     1      14.420  -5.909  20.808  0.00  0.00    +0.037 C 
ENDROOT
BRANCH   3  15
ATOM     15  N   UNL     1      13.224  -8.573  19.347  0.00  0.00    -0.310 N 
ATOM     16  C   UNL     1      13.086  -7.723  20.535  0.00  0.00    +0.107 C 
ATOM     17  C   UNL     1      11.607  -7.485  20.838  0.00  0.00    +0.023 C 
ATOM     18  C   UNL     1      10.832  -8.800  20.900  0.00  0.00    +0.039 C 
ATOM     19  C   UNL     1      11.066  -9.584  19.626  0.00  0.00    +0.004 C 
ATOM     20  C   UNL     1      12.540  -9.862  19.411  0.00  0.00    +0.142 C 
ATOM     21  C   UNL     1      10.079  -9.983  18.800  0.00  0.00    +0.175 C 
BRANCH  21  22
ATOM     22  N   UNL     1       8.755  -9.826  19.003  0.00  0.00    -0.330 N 
ATOM     23  H   UNL     1       8.136 -10.228  18.311  0.00  0.00    +0.145 HD
ATOM     24  H   UNL     1       8.380  -9.431  19.850  0.00  0.00    +0.145 HD
ENDBRANCH  21  22
BRANCH  21  25
ATOM     25  O   UNL     1      10.325 -10.617  17.613  0.00  0.00    -0.495 OA
ATOM     26  H   UNL     1      11.170 -10.287  17.265  0.00  0.00    +0.293 HD
ENDBRANCH  21  25
ENDBRANCH   3  15
TORSDOF 3
ENDMDL
