MODEL 1
REMARK minimizedAffinity -3.63405252
REMARK minimizedRMSD -1
REMARK  Name = 
REMARK  3 active torsions:
REMARK  status: ('A' for Active; 'I' for Inactive)
REMARK    1  A    between atoms: C_3  and  N_15
REMARK    2  A    between atoms: C_21  and  O_22
REMARK    3  A    between atoms: C_21  and  N_23
REMARK                            x       y       z     vdW  Elec       q    Type
REMARK                         _______ _______ _______ _____ _____    ______ ____
ROOT
ATOM      1  C   UNL     1       3.091  47.608  -8.175  0.00  0.00    +0.224 A 
ATOM      2  N   UNL     1       2.336  47.536  -7.072  0.00  0.00    -0.220 NA
ATOM      3  C   UNL     1       1.179  48.240  -7.014  0.00  0.00    +0.133 A 
ATOM      4  C   UNL     1       0.781  48.983  -8.156  0.00  0.00    +0.051 A 
ATOM      5  C   UNL     1      -0.406  49.757  -8.507  0.00  0.00    -0.025 A 
ATOM      6  C   UNL     1      -0.272  50.358  -9.750  0.00  0.00    -0.004 A 
ATOM      7  S   UNL     1       1.189  49.936 -10.521  0.00  0.00    -0.073 S 
ATOM      8  C   UNL     1       1.682  48.973  -9.212  0.00  0.00    +0.114 A 
ATOM      9  N   UNL     1       2.849  48.314  -9.277  0.00  0.00    -0.228 NA
ATOM     10  C   UNL     1      -1.241  51.271 -10.442  0.00  0.00    +0.043 C 
ATOM     11  C   UNL     1      -2.597  50.606 -10.677  0.00  0.00    +0.005 C 
ATOM     12  C   UNL     1      -3.449  50.473  -9.413  0.00  0.00    +0.001 C 
ATOM     13  C   UNL     1      -2.925  49.470  -8.384  0.00  0.00    +0.005 C 
ATOM     14  C   UNL     1      -1.645  49.906  -7.666  0.00  0.00    +0.037 C 
ENDROOT
BRANCH   3  15
ATOM     15  N   UNL     1       0.451  48.215  -5.822  0.00  0.00    -0.310 N 
ATOM     16  C   UNL     1       1.217  48.716  -4.675  0.00  0.00    +0.107 C 
ATOM     17  C   UNL     1       0.290  48.919  -3.477  0.00  0.00    +0.023 C 
ATOM     18  C   UNL     1      -0.537  47.666  -3.194  0.00  0.00    +0.039 C 
ATOM     19  C   UNL     1      -1.266  47.246  -4.454  0.00  0.00    +0.004 C 
ATOM     20  C   UNL     1      -0.299  46.983  -5.590  0.00  0.00    +0.142 C 
ATOM     21  C   UNL     1      -2.605  47.123  -4.539  0.00  0.00    +0.175 C 
BRANCH  21  22
ATOM     22  N   UNL     1      -3.486  47.269  -3.529  0.00  0.00    -0.330 N 
ATOM     23  H   UNL     1      -4.460  47.092  -3.742  0.00  0.00    +0.145 HD
ATOM     24  H   UNL     1      -3.198  47.433  -2.578  0.00  0.00    +0.145 HD
ENDBRANCH  21  22
BRANCH  21  25
ATOM     25  O   UNL     1      -3.243  46.825  -5.713  0.00  0.00    -0.495 OA
ATOM     26  H   UNL     1      -2.725  47.205  -6.441  0.00  0.00    +0.293 HD
ENDBRANCH  21  25
ENDBRANCH   3  15
TORSDOF 3
ENDMDL
MODEL 2
REMARK minimizedAffinity -3.368366
REMARK minimizedRMSD -1
REMARK  Name = 
REMARK  3 active torsions:
REMARK  status: ('A' for Active; 'I' for Inactive)
REMARK    1  A    between atoms: C_3  and  N_15
REMARK    2  A    between atoms: C_21  and  O_22
REMARK    3  A    between atoms: C_21  and  N_23
REMARK                            x       y       z     vdW  Elec       q    Type
REMARK                         _______ _______ _______ _____ _____    ______ ____
ROOT
ATOM      1  C   UNL     1      -3.489  47.342  -5.748  0.00  0.00    +0.224 A 
ATOM      2  N   UNL     1      -3.059  47.827  -6.919  0.00  0.00    -0.220 NA
ATOM      3  C   UNL     1      -1.767  48.219  -7.041  0.00  0.00    +0.133 A 
ATOM      4  C   UNL     1      -0.899  48.039  -5.933  0.00  0.00    +0.051 A 
ATOM      5  C   UNL     1       0.532  48.232  -5.715  0.00  0.00    -0.025 A 
ATOM      6  C   UNL     1       0.887  47.969  -4.400  0.00  0.00    -0.004 A 
ATOM      7  S   UNL     1      -0.432  47.418  -3.470  0.00  0.00    -0.073 S 
ATOM      8  C   UNL     1      -1.500  47.542  -4.784  0.00  0.00    +0.114 A 
ATOM      9  N   UNL     1      -2.784  47.184  -4.630  0.00  0.00    -0.228 NA
ATOM     10  C   UNL     1       2.240  48.101  -3.766  0.00  0.00    +0.043 C 
ATOM     11  C   UNL     1       3.285  47.215  -4.444  0.00  0.00    +0.005 C 
ATOM     12  C   UNL     1       3.747  47.734  -5.807  0.00  0.00    +0.001 C 
ATOM     13  C   UNL     1       2.695  47.664  -6.916  0.00  0.00    +0.005 C 
ATOM     14  C   UNL     1       1.536  48.651  -6.755  0.00  0.00    +0.037 C 
ENDROOT
BRANCH   3  15
ATOM     15  N   UNL     1      -1.365  48.799  -8.246  0.00  0.00    -0.310 N 
ATOM     16  C   UNL     1      -1.838  50.178  -8.401  0.00  0.00    +0.107 C 
ATOM     17  C   UNL     1      -1.144  50.838  -9.592  0.00  0.00    +0.023 C 
ATOM     18  C   UNL     1      -1.258  49.978 -10.850  0.00  0.00    +0.039 C 
ATOM     19  C   UNL     1      -0.750  48.583 -10.555  0.00  0.00    +0.004 C 
ATOM     20  C   UNL     1      -1.521  47.942  -9.419  0.00  0.00    +0.142 C 
ATOM     21  C   UNL     1       0.257  47.994 -11.229  0.00  0.00    +0.175 C 
BRANCH  21  22
ATOM     22  N   UNL     1       0.908  48.501 -12.296  0.00  0.00    -0.330 N 
ATOM     23  H   UNL     1       1.610  47.913 -12.726  0.00  0.00    +0.145 HD
ATOM     24  H   UNL     1       0.644  49.372 -12.728  0.00  0.00    +0.145 HD
ENDBRANCH  21  22
BRANCH  21  25
ATOM     25  O   UNL     1       0.753  46.765 -10.886  0.00  0.00    -0.495 OA
ATOM     26  H   UNL     1       0.663  46.663  -9.925  0.00  0.00    +0.293 HD
ENDBRANCH  21  25
ENDBRANCH   3  15
TORSDOF 3
ENDMDL
MODEL 3
REMARK minimizedAffinity -2.87512755
REMARK minimizedRMSD -1
REMARK  Name = 
REMARK  3 active torsions:
REMARK  status: ('A' for Active; 'I' for Inactive)
REMARK    1  A    between atoms: C_3  and  N_15
REMARK    2  A    between atoms: C_21  and  O_22
REMARK    3  A    between atoms: C_21  and  N_23
REMARK                            x       y       z     vdW  Elec       q    Type
REMARK                         _______ _______ _______ _____ _____    ______ ____
ROOT
ATOM      1  C   UNL     1      -2.039  50.352  -8.885  0.00  0.00    +0.224 A 
ATOM      2  N   UNL     1      -1.665  49.909  -7.678  0.00  0.00    -0.220 NA
ATOM      3  C   UNL     1      -0.662  49.001  -7.586  0.00  0.00    +0.133 A 
ATOM      4  C   UNL     1      -0.001  48.601  -8.776  0.00  0.00    +0.051 A 
ATOM      5  C   UNL     1       1.152  47.754  -9.067  0.00  0.00    -0.025 A 
ATOM      6  C   UNL     1       1.357  47.626 -10.433  0.00  0.00    -0.004 A 
ATOM      7  S   UNL     1       0.262  48.564 -11.344  0.00  0.00    -0.073 S 
ATOM      8  C   UNL     1      -0.518  49.134  -9.949  0.00  0.00    +0.114 A 
ATOM      9  N   UNL     1      -1.534  50.004 -10.066  0.00  0.00    -0.228 NA
ATOM     10  C   UNL     1       2.398  46.805 -11.136  0.00  0.00    +0.043 C 
ATOM     11  C   UNL     1       3.818  47.217 -10.750  0.00  0.00    +0.005 C 
ATOM     12  C   UNL     1       4.238  46.759  -9.352  0.00  0.00    +0.001 C 
ATOM     13  C   UNL     1       3.520  47.463  -8.199  0.00  0.00    +0.005 C 
ATOM     14  C   UNL     1       2.041  47.091  -8.050  0.00  0.00    +0.037 C 
ENDROOT
BRANCH   3  15
ATOM     15  N   UNL     1      -0.349  48.492  -6.323  0.00  0.00    -0.310 N 
ATOM     16  C   UNL     1      -1.526  48.013  -5.593  0.00  0.00    +0.107 C 
ATOM     17  C   UNL     1      -1.090  47.228  -4.356  0.00  0.00    +0.023 C 
ATOM     18  C   UNL     1      -0.095  48.025  -3.513  0.00  0.00    +0.039 C 
ATOM     19  C   UNL     1       1.062  48.470  -4.383  0.00  0.00    +0.004 C 
ATOM     20  C   UNL     1       0.585  49.308  -5.551  0.00  0.00    +0.142 C 
ATOM     21  C   UNL     1       2.349  48.156  -4.135  0.00  0.00    +0.175 C 
BRANCH  21  22
ATOM     22  N   UNL     1       2.815  47.484  -3.063  0.00  0.00    -0.330 N 
ATOM     23  H   UNL     1       3.819  47.372  -2.995  0.00  0.00    +0.145 HD
ATOM     24  H   UNL     1       2.221  47.199  -2.301  0.00  0.00    +0.145 HD
ENDBRANCH  21  22
BRANCH  21  25
ATOM     25  O   UNL     1       3.366  48.500  -4.984  0.00  0.00    -0.495 OA
ATOM     26  H   UNL     1       3.014  48.503  -5.889  0.00  0.00    +0.293 HD
ENDBRANCH  21  25
ENDBRANCH   3  15
TORSDOF 3
ENDMDL
MODEL 4
REMARK minimizedAffinity -1.60143209
REMARK minimizedRMSD -1
REMARK  Name = 
REMARK  3 active torsions:
REMARK  status: ('A' for Active; 'I' for Inactive)
REMARK    1  A    between atoms: C_3  and  N_15
REMARK    2  A    between atoms: C_21  and  O_22
REMARK    3  A    between atoms: C_21  and  N_23
REMARK                            x       y       z     vdW  Elec       q    Type
REMARK                         _______ _______ _______ _____ _____    ______ ____
ROOT
ATOM      1  C   UNL     1      -1.898  47.711  -7.018  0.00  0.00    +0.224 A 
ATOM      2  N   UNL     1      -0.689  47.525  -7.561  0.00  0.00    -0.220 NA
ATOM      3  C   UNL     1      -0.319  48.271  -8.631  0.00  0.00    +0.133 A 
ATOM      4  C   UNL     1      -1.212  49.271  -9.099  0.00  0.00    +0.051 A 
ATOM      5  C   UNL     1      -1.135  50.310 -10.121  0.00  0.00    -0.025 A 
ATOM      6  C   UNL     1      -2.333  51.000 -10.236  0.00  0.00    -0.004 A 
ATOM      7  S   UNL     1      -3.489  50.488  -9.092  0.00  0.00    -0.073 S 
ATOM      8  C   UNL     1      -2.435  49.326  -8.444  0.00  0.00    +0.114 A 
ATOM      9  N   UNL     1      -2.835  48.572  -7.408  0.00  0.00    -0.228 NA
ATOM     10  C   UNL     1      -2.676  52.098 -11.200  0.00  0.00    +0.043 C 
ATOM     11  C   UNL     1      -1.752  53.306 -11.053  0.00  0.00    +0.005 C 
ATOM     12  C   UNL     1      -0.350  53.087 -11.625  0.00  0.00    +0.001 C 
ATOM     13  C   UNL     1       0.517  52.094 -10.848  0.00  0.00    +0.005 C 
ATOM     14  C   UNL     1       0.070  50.634 -10.963  0.00  0.00    +0.037 C 
ENDROOT
BRANCH   3  15
ATOM     15  N   UNL     1       0.913  48.000  -9.230  0.00  0.00    -0.310 N 
ATOM     16  C   UNL     1       0.783  47.522 -10.611  0.00  0.00    +0.107 C 
ATOM     17  C   UNL     1       2.153  47.508 -11.289  0.00  0.00    +0.023 C 
ATOM     18  C   UNL     1       3.184  46.759 -10.447  0.00  0.00    +0.039 C 
ATOM     19  C   UNL     1       3.212  47.338  -9.049  0.00  0.00    +0.004 C 
ATOM     20  C   UNL     1       1.850  47.257  -8.390  0.00  0.00    +0.142 C 
ATOM     21  C   UNL     1       4.316  47.852  -8.472  0.00  0.00    +0.175 C 
BRANCH  21  22
ATOM     22  N   UNL     1       5.559  47.864  -8.996  0.00  0.00    -0.330 N 
ATOM     23  H   UNL     1       6.296  48.242  -8.415  0.00  0.00    +0.145 HD
ATOM     24  H   UNL     1       5.782  47.421  -9.873  0.00  0.00    +0.145 HD
ENDBRANCH  21  22
BRANCH  21  25
ATOM     25  O   UNL     1       4.293  48.446  -7.239  0.00  0.00    -0.495 OA
ATOM     26  H   UNL     1       3.425  48.862  -7.122  0.00  0.00    +0.293 HD
ENDBRANCH  21  25
ENDBRANCH   3  15
TORSDOF 3
ENDMDL
MODEL 5
REMARK minimizedAffinity -0.723471522
REMARK minimizedRMSD -1
REMARK  Name = 
REMARK  3 active torsions:
REMARK  status: ('A' for Active; 'I' for Inactive)
REMARK    1  A    between atoms: C_3  and  N_15
REMARK    2  A    between atoms: C_21  and  O_22
REMARK    3  A    between atoms: C_21  and  N_23
REMARK                            x       y       z     vdW  Elec       q    Type
REMARK                         _______ _______ _______ _____ _____    ______ ____
ROOT
ATOM      1  C   UNL     1      -0.801  47.783  -2.450  0.00  0.00    +0.224 A 
ATOM      2  N   UNL     1       0.359  47.813  -3.117  0.00  0.00    -0.220 NA
ATOM      3  C   UNL     1       0.360  47.601  -4.456  0.00  0.00    +0.133 A 
ATOM      4  C   UNL     1      -0.885  47.416  -5.112  0.00  0.00    +0.051 A 
ATOM      5  C   UNL     1      -1.291  47.269  -6.506  0.00  0.00    -0.025 A 
ATOM      6  C   UNL     1      -2.655  47.041  -6.618  0.00  0.00    -0.004 A 
ATOM      7  S   UNL     1      -3.446  47.092  -5.108  0.00  0.00    -0.073 S 
ATOM      8  C   UNL     1      -1.995  47.391  -4.279  0.00  0.00    +0.114 A 
ATOM      9  N   UNL     1      -2.015  47.561  -2.948  0.00  0.00    -0.228 NA
ATOM     10  C   UNL     1      -3.449  46.787  -7.865  0.00  0.00    +0.043 C 
ATOM     11  C   UNL     1      -3.350  47.944  -8.859  0.00  0.00    +0.005 C 
ATOM     12  C   UNL     1      -2.008  48.018  -9.592  0.00  0.00    +0.001 C 
ATOM     13  C   UNL     1      -0.817  48.420  -8.719  0.00  0.00    +0.005 C 
ATOM     14  C   UNL     1      -0.385  47.356  -7.705  0.00  0.00    +0.037 C 
ENDROOT
BRANCH   3  15
ATOM     15  N   UNL     1       1.591  47.554  -5.115  0.00  0.00    -0.310 N 
ATOM     16  C   UNL     1       2.674  47.051  -4.264  0.00  0.00    +0.107 C 
ATOM     17  C   UNL     1       3.915  46.768  -5.112  0.00  0.00    +0.023 C 
ATOM     18  C   UNL     1       4.286  47.972  -5.976  0.00  0.00    +0.039 C 
ATOM     19  C   UNL     1       3.085  48.398  -6.792  0.00  0.00    +0.004 C 
ATOM     20  C   UNL     1       1.907  48.743  -5.904  0.00  0.00    +0.142 C 
ATOM     21  C   UNL     1       3.078  48.462  -8.138  0.00  0.00    +0.175 C 
BRANCH  21  22
ATOM     22  N   UNL     1       4.130  48.244  -8.953  0.00  0.00    -0.330 N 
ATOM     23  H   UNL     1       3.977  48.382  -9.944  0.00  0.00    +0.145 HD
ATOM     24  H   UNL     1       5.057  48.061  -8.605  0.00  0.00    +0.145 HD
ENDBRANCH  21  22
BRANCH  21  25
ATOM     25  O   UNL     1       1.953  48.769  -8.854  0.00  0.00    -0.495 OA
ATOM     26  H   UNL     1       1.184  48.437  -8.363  0.00  0.00    +0.293 HD
ENDBRANCH  21  25
ENDBRANCH   3  15
TORSDOF 3
ENDMDL
