MODEL 1
REMARK minimizedAffinity -3.87025905
REMARK minimizedRMSD -1
REMARK  Name = 
REMARK  4 active torsions:
REMARK  status: ('A' for Active; 'I' for Inactive)
REMARK    1  A    between atoms: C_1  and  C_2
REMARK    2  A    between atoms: C_11  and  O_12
REMARK    3  A    between atoms: C_17  and  O_18
REMARK    4  A    between atoms: C_23  and  O_24
REMARK                            x       y       z     vdW  Elec       q    Type
REMARK                         _______ _______ _______ _____ _____    ______ ____
ROOT
ATOM      1  C   UNL     1      12.180   3.641 -10.086  0.00  0.00    +0.052 C 
ATOM      2  C   UNL     1      12.685   2.666  -9.023  0.00  0.00    +0.176 C 
ATOM      3  C   UNL     1      14.219   2.567  -8.993  0.00  0.00    +0.079 C 
ATOM      4  C   UNL     1      14.879   2.239 -10.305  0.00  0.00    +0.155 C 
ATOM      5  O   UNL     1      16.228   1.785 -10.111  0.00  0.00    -0.364 OA
ATOM      6  C   UNL     1      15.313   0.839 -10.691  0.00  0.00    +0.170 C 
ATOM      7  C   UNL     1      15.483   0.462 -12.102  0.00  0.00    +0.007 C 
ATOM      8  C   UNL     1      14.560   0.326 -13.068  0.00  0.00    -0.002 C 
ATOM      9  C   UNL     1      13.142   0.545 -12.924  0.00  0.00    +0.003 C 
ATOM     10  C   UNL     1      12.382  -0.058 -11.997  0.00  0.00    +0.045 C 
ATOM     11  C   UNL     1      10.974   0.209 -11.779  0.00  0.00    +0.117 C 
ATOM     12  C   UNL     1      10.261  -0.265 -10.743  0.00  0.00    +0.055 C 
ATOM     13  C   UNL     1      10.724  -1.173  -9.682  0.00  0.00    +0.018 C 
ATOM     14  C   UNL     1      10.473  -2.500  -9.825  0.00  0.00    +0.091 C 
ATOM     15 CL   UNL     1       9.689  -3.154 -11.246  0.00  0.00    -0.079 Cl
ATOM     16  C   UNL     1      10.793  -3.464  -8.783  0.00  0.00    +0.139 C 
ATOM     17  C   UNL     1      11.232  -3.099  -7.579  0.00  0.00    +0.098 C 
ATOM     18  C   UNL     1      11.471  -1.677  -7.282  0.00  0.00    +0.197 C 
ATOM     19  O   UNL     1      11.763  -1.334  -6.139  0.00  0.00    -0.287 OA
ATOM     20  C   UNL     1      11.388  -0.706  -8.432  0.00  0.00    +0.110 C 
ATOM     21  C   UNL     1      11.967   0.507  -8.234  0.00  0.00    +0.291 C 
ATOM     22  O   UNL     1      12.056   1.405  -9.281  0.00  0.00    -0.461 OA
ENDROOT
BRANCH  11  23
ATOM     23  O   UNL     1      10.400   1.043 -12.720  0.00  0.00    -0.507 OA
ATOM     24  H   UNL     1       9.477   1.207 -12.470  0.00  0.00    +0.292 HD
ENDBRANCH  11  23
BRANCH  16  25
ATOM     25  O   UNL     1      10.590  -4.807  -9.048  0.00  0.00    -0.505 OA
ATOM     26  H   UNL     1      10.254  -4.888  -9.961  0.00  0.00    +0.292 HD
ENDBRANCH  16  25
BRANCH  21  27
ATOM     27  O   UNL     1      12.524   0.892  -7.023  0.00  0.00    -0.480 OA
ATOM     28  H   UNL     1      12.356   0.196  -6.352  0.00  0.00    +0.295 HD
ENDBRANCH  21  27
TORSDOF 3
ENDMDL
MODEL 2
REMARK minimizedAffinity -3.68791938
REMARK minimizedRMSD -1
REMARK  Name = 
REMARK  4 active torsions:
REMARK  status: ('A' for Active; 'I' for Inactive)
REMARK    1  A    between atoms: C_1  and  C_2
REMARK    2  A    between atoms: C_11  and  O_12
REMARK    3  A    between atoms: C_17  and  O_18
REMARK    4  A    between atoms: C_23  and  O_24
REMARK                            x       y       z     vdW  Elec       q    Type
REMARK                         _______ _______ _______ _____ _____    ______ ____
ROOT
ATOM      1  C   UNL     1       9.751   2.858 -10.198  0.00  0.00    +0.052 C 
ATOM      2  C   UNL     1      10.398   3.039  -8.825  0.00  0.00    +0.176 C 
ATOM      3  C   UNL     1      11.808   3.647  -8.913  0.00  0.00    +0.079 C 
ATOM      4  C   UNL     1      12.775   2.929  -9.814  0.00  0.00    +0.155 C 
ATOM      5  O   UNL     1      14.131   3.314  -9.536  0.00  0.00    -0.364 OA
ATOM      6  C   UNL     1      13.800   1.933  -9.311  0.00  0.00    +0.170 C 
ATOM      7  C   UNL     1      14.366   0.913 -10.206  0.00  0.00    +0.007 C 
ATOM      8  C   UNL     1      13.773  -0.148 -10.777  0.00  0.00    -0.002 C 
ATOM      9  C   UNL     1      12.387  -0.522 -10.639  0.00  0.00    +0.003 C 
ATOM     10  C   UNL     1      11.776  -0.710  -9.460  0.00  0.00    +0.045 C 
ATOM     11  C   UNL     1      10.366  -1.003  -9.295  0.00  0.00    +0.117 C 
ATOM     12  C   UNL     1       9.725  -1.019  -8.113  0.00  0.00    +0.055 C 
ATOM     13  C   UNL     1      10.309  -0.811  -6.779  0.00  0.00    +0.018 C 
ATOM     14  C   UNL     1      10.643  -1.908  -6.052  0.00  0.00    +0.091 C 
ATOM     15 CL   UNL     1      10.469  -3.532  -6.680  0.00  0.00    -0.079 Cl
ATOM     16  C   UNL     1      11.125  -1.811  -4.683  0.00  0.00    +0.139 C 
ATOM     17  C   UNL     1      11.147  -0.660  -4.011  0.00  0.00    +0.098 C 
ATOM     18  C   UNL     1      10.734   0.588  -4.673  0.00  0.00    +0.197 C 
ATOM     19  O   UNL     1      10.645   1.624  -4.020  0.00  0.00    -0.287 OA
ATOM     20  C   UNL     1      10.483   0.533  -6.158  0.00  0.00    +0.110 C 
ATOM     21  C   UNL     1      10.477   1.726  -6.809  0.00  0.00    +0.291 C 
ATOM     22  O   UNL     1      10.390   1.756  -8.187  0.00  0.00    -0.461 OA
ENDROOT
BRANCH  11  23
ATOM     23  O   UNL     1       9.691  -1.238 -10.478  0.00  0.00    -0.507 OA
ATOM     24  H   UNL     1       8.751  -1.374 -10.279  0.00  0.00    +0.292 HD
ENDBRANCH  11  23
BRANCH  16  25
ATOM     25  O   UNL     1      11.533  -2.971  -4.048  0.00  0.00    -0.505 OA
ATOM     26  H   UNL     1      11.434  -3.711  -4.677  0.00  0.00    +0.292 HD
ENDBRANCH  16  25
BRANCH  21  27
ATOM     27  O   UNL     1      10.596   2.944  -6.157  0.00  0.00    -0.480 OA
ATOM     28  H   UNL     1      10.600   2.795  -5.187  0.00  0.00    +0.295 HD
ENDBRANCH  21  27
TORSDOF 3
ENDMDL
