REMARK  Name = 
REMARK  4 active torsions:
REMARK  status: ('A' for Active; 'I' for Inactive)
REMARK    1  A    between atoms: C_1  and  C_2
REMARK    2  A    between atoms: C_11  and  O_12
REMARK    3  A    between atoms: C_20  and  O_21
REMARK    4  A    between atoms: C_23  and  O_24
REMARK                            x       y       z     vdW  Elec       q    Type
REMARK                         _______ _______ _______ _____ _____    ______ ____
ROOT
ATOM      1  C   UNL     1      -2.252   3.918  -0.730  0.00  0.00    +0.052 C 
ATOM      2  C   UNL     1      -1.489   2.591  -0.752  0.00  0.00    +0.176 C 
ATOM      3  C   UNL     1      -1.333   2.117  -2.211  0.00  0.00    +0.079 C 
ATOM      4  C   UNL     1      -0.361   0.989  -2.362  0.00  0.00    +0.155 C 
ATOM      5  O   UNL     1       0.766   1.236  -3.206  0.00  0.00    -0.364 OA
ATOM      6  C   UNL     1       1.054   1.066  -1.807  0.00  0.00    +0.170 C 
ATOM      7  C   UNL     1       1.560  -0.181  -1.224  0.00  0.00    +0.007 C 
ATOM      8  C   UNL     1       2.315  -0.377  -0.134  0.00  0.00    -0.002 C 
ATOM      9  C   UNL     1       2.940   0.601   0.719  0.00  0.00    +0.003 C 
ATOM     10  C   UNL     1       2.465   1.599   1.478  0.00  0.00    +0.045 C 
ATOM     11  C   UNL     1       1.154   2.135   1.770  0.00  0.00    +0.117 C 
ATOM     12  C   UNL     1      -0.016   1.508   1.979  0.00  0.00    +0.055 C 
ATOM     13  C   UNL     1      -0.347   0.089   1.853  0.00  0.00    +0.018 C 
ATOM     14  C   UNL     1       0.169  -0.790   2.749  0.00  0.00    +0.096 C 
ATOM     15 CL   UNL     1       1.120  -0.316   4.128  0.00  0.00    -0.079 Cl
ATOM     16  C   UNL     1      -0.056  -2.261   2.632  0.00  0.00    +0.201 C 
ATOM     17  O   UNL     1       0.321  -3.072   3.474  0.00  0.00    -0.286 OA
ATOM     18  C   UNL     1      -0.735  -2.748   1.422  0.00  0.00    +0.098 C 
ATOM     19  C   UNL     1      -1.290  -1.895   0.561  0.00  0.00    +0.135 C 
ATOM     20  C   UNL     1      -1.267  -0.429   0.777  0.00  0.00    +0.105 C 
ATOM     21  C   UNL     1      -2.075   0.383   0.032  0.00  0.00    +0.291 C 
ATOM     22  O   UNL     1      -2.196   1.738   0.178  0.00  0.00    -0.461 OA
ENDROOT
BRANCH  11  23
ATOM     23  O   UNL     1       1.233   3.509   1.949  0.00  0.00    -0.507 OA
ATOM     24  H   UNL     1       0.378   3.840   2.267  0.00  0.00    +0.292 HD
ENDBRANCH  11  23
BRANCH  19  25
ATOM     25  O   UNL     1      -1.899  -2.418  -0.566  0.00  0.00    -0.506 OA
ATOM     26  H   UNL     1      -2.422  -1.703  -0.982  0.00  0.00    +0.292 HD
ENDBRANCH  19  25
BRANCH  21  27
ATOM     27  O   UNL     1      -2.988  -0.160  -0.857  0.00  0.00    -0.480 OA
ATOM     28  H   UNL     1      -3.632   0.562  -0.995  0.00  0.00    +0.295 HD
ENDBRANCH  21  27
TORSDOF 3
