REMARK  Name = 
REMARK  3 active torsions:
REMARK  status: ('A' for Active; 'I' for Inactive)
REMARK    1  A    between atoms: C_1  and  C_2
REMARK    2  A    between atoms: C_17  and  O_18
REMARK    3  A    between atoms: C_23  and  O_24
REMARK                            x       y       z     vdW  Elec       q    Type
REMARK                         _______ _______ _______ _____ _____    ______ ____
ROOT
ATOM      1  C   UNL     1       1.685   1.033  -2.821  0.00  0.00    +0.052 C 
ATOM      2  C   UNL     1       0.201   0.954  -2.453  0.00  0.00    +0.176 C 
ATOM      3  C   UNL     1      -0.439   2.354  -2.350  0.00  0.00    +0.079 C 
ATOM      4  C   UNL     1       0.093   3.289  -1.292  0.00  0.00    +0.155 C 
ATOM      5  O   UNL     1      -0.573   3.072  -0.036  0.00  0.00    -0.364 OA
ATOM      6  C   UNL     1       0.842   2.852  -0.060  0.00  0.00    +0.170 C 
ATOM      7  C   UNL     1       1.736   3.719   0.702  0.00  0.00    +0.007 C 
ATOM      8  C   UNL     1       1.778   3.829   2.041  0.00  0.00    -0.002 C 
ATOM      9  C   UNL     1       0.872   3.211   2.989  0.00  0.00    +0.003 C 
ATOM     10  C   UNL     1       0.438   1.943   3.078  0.00  0.00    +0.046 C 
ATOM     11  C   UNL     1       0.831   0.798   2.203  0.00  0.00    +0.160 C 
ATOM     12  O   UNL     1       2.014   0.575   1.957  0.00  0.00    -0.292 OA
ATOM     13  C   UNL     1      -0.321  -0.058   1.658  0.00  0.00    +0.116 C 
ATOM     14  C   UNL     1       0.130  -1.461   1.279  0.00  0.00    -0.001 C 
ATOM     15  C   UNL     1       0.414  -2.356   2.260  0.00  0.00    +0.087 C 
ATOM     16 CL   UNL     1       0.319  -1.940   3.956  0.00  0.00    -0.079 Cl
ATOM     17  C   UNL     1       0.795  -3.728   1.978  0.00  0.00    +0.139 C 
ATOM     18  C   UNL     1       0.774  -4.235   0.748  0.00  0.00    +0.098 C 
ATOM     19  C   UNL     1       0.394  -3.389  -0.393  0.00  0.00    +0.197 C 
ATOM     20  O   UNL     1       0.271  -3.911  -1.500  0.00  0.00    -0.287 OA
ATOM     21  C   UNL     1       0.194  -1.902  -0.148  0.00  0.00    +0.106 C 
ATOM     22  C   UNL     1       0.106  -1.147  -1.282  0.00  0.00    +0.291 C 
ATOM     23  O   UNL     1      -0.008   0.230  -1.223  0.00  0.00    -0.461 OA
ENDROOT
BRANCH  17  24
ATOM     24  O   UNL     1       1.164  -4.540   3.035  0.00  0.00    -0.505 OA
ATOM     25  H   UNL     1       1.159  -3.997   3.846  0.00  0.00    +0.292 HD
ENDBRANCH  17  24
BRANCH  22  26
ATOM     26  O   UNL     1       0.138  -1.694  -2.559  0.00  0.00    -0.480 OA
ATOM     27  H   UNL     1       0.166  -2.674  -2.498  0.00  0.00    +0.295 HD
ENDBRANCH  22  26
TORSDOF 2
