REMARK  Name = 
REMARK  2 active torsions:
REMARK  status: ('A' for Active; 'I' for Inactive)
REMARK    1  A    between atoms: C_1  and  C_2
REMARK    2  A    between atoms: C_20  and  O_21
REMARK                            x       y       z     vdW  Elec       q    Type
REMARK                         _______ _______ _______ _____ _____    ______ ____
ROOT
ATOM      1  C   UNL     1      -2.616   0.217   1.046  0.00  0.00    +0.052 C 
ATOM      2  C   UNL     1      -1.960   0.164  -0.329  0.00  0.00    +0.176 C 
ATOM      3  C   UNL     1      -1.830  -1.248  -0.917  0.00  0.00    +0.079 C 
ATOM      4  C   UNL     1      -1.321  -2.283   0.041  0.00  0.00    +0.155 C 
ATOM      5  O   UNL     1      -0.905  -3.490  -0.611  0.00  0.00    -0.364 OA
ATOM      6  C   UNL     1       0.120  -2.740   0.063  0.00  0.00    +0.170 C 
ATOM      7  C   UNL     1       0.694  -3.214   1.327  0.00  0.00    +0.007 C 
ATOM      8  C   UNL     1       1.029  -2.507   2.418  0.00  0.00    -0.002 C 
ATOM      9  C   UNL     1       0.887  -1.081   2.592  0.00  0.00    +0.003 C 
ATOM     10  C   UNL     1       1.485  -0.106   1.892  0.00  0.00    +0.046 C 
ATOM     11  C   UNL     1       2.468  -0.342   0.797  0.00  0.00    +0.160 C 
ATOM     12  O   UNL     1       3.313  -1.232   0.891  0.00  0.00    -0.292 OA
ATOM     13  C   UNL     1       2.366   0.494  -0.477  0.00  0.00    +0.116 C 
ATOM     14  C   UNL     1       2.069   1.972  -0.303  0.00  0.00    -0.001 C 
ATOM     15  C   UNL     1       2.969   2.816   0.246  0.00  0.00    +0.088 C 
ATOM     16 CL   UNL     1       4.476   2.292   0.912  0.00  0.00    -0.080 Cl
ATOM     17  C   UNL     1       2.721   4.291   0.275  0.00  0.00    +0.182 C 
ATOM     18  O   UNL     1       3.415   5.042   0.961  0.00  0.00    -0.291 OA
ATOM     19  C   UNL     1       1.625   4.848  -0.610  0.00  0.00    +0.154 C 
ATOM     20  C   UNL     1       0.634   3.816  -1.057  0.00  0.00    +0.116 C 
ATOM     21  C   UNL     1       0.816   2.491  -0.863  0.00  0.00    +0.102 C 
ATOM     22  C   UNL     1      -0.336   1.627  -1.246  0.00  0.00    +0.343 C 
ATOM     23  O   UNL     1      -0.957   1.779  -2.289  0.00  0.00    -0.245 OA
ATOM     24  O   UNL     1      -0.667   0.800  -0.223  0.00  0.00    -0.458 OA
ENDROOT
BRANCH  20  25
ATOM     25  O   UNL     1      -0.483   4.369  -1.661  0.00  0.00    -0.510 OA
ATOM     26  H   UNL     1      -0.969   3.683  -2.170  0.00  0.00    +0.292 HD
ENDBRANCH  20  25
TORSDOF 1
