REMARK  Name = 
REMARK  4 active torsions:
REMARK  status: ('A' for Active; 'I' for Inactive)
REMARK    1  A    between atoms: C_1  and  C_2
REMARK    2  A    between atoms: C_11  and  O_12
REMARK    3  A    between atoms: C_17  and  O_18
REMARK    4  A    between atoms: C_23  and  O_24
REMARK                            x       y       z     vdW  Elec       q    Type
REMARK                         _______ _______ _______ _____ _____    ______ ____
ROOT
ATOM      1  C   UNL     1       2.986  -0.379   2.089  0.00  0.00    +0.052 C 
ATOM      2  C   UNL     1       1.696  -1.198   2.109  0.00  0.00    +0.176 C 
ATOM      3  C   UNL     1       1.820  -2.515   1.324  0.00  0.00    +0.079 C 
ATOM      4  C   UNL     1       2.291  -2.386  -0.099  0.00  0.00    +0.155 C 
ATOM      5  O   UNL     1       2.003  -3.575  -0.853  0.00  0.00    -0.364 OA
ATOM      6  C   UNL     1       1.352  -2.369  -1.288  0.00  0.00    +0.170 C 
ATOM      7  C   UNL     1       1.759  -1.764  -2.565  0.00  0.00    +0.007 C 
ATOM      8  C   UNL     1       1.991  -0.476  -2.866  0.00  0.00    -0.002 C 
ATOM      9  C   UNL     1       1.899   0.638  -1.955  0.00  0.00    +0.003 C 
ATOM     10  C   UNL     1       0.811   0.918  -1.222  0.00  0.00    +0.045 C 
ATOM     11  C   UNL     1       0.725   1.980  -0.239  0.00  0.00    +0.117 C 
ATOM     12  C   UNL     1      -0.302   2.148   0.613  0.00  0.00    +0.055 C 
ATOM     13  C   UNL     1      -1.539   1.356   0.685  0.00  0.00    +0.018 C 
ATOM     14  C   UNL     1      -2.638   1.831   0.044  0.00  0.00    +0.091 C 
ATOM     15 CL   UNL     1      -2.601   3.298  -0.909  0.00  0.00    -0.079 Cl
ATOM     16  C   UNL     1      -3.935   1.179   0.145  0.00  0.00    +0.139 C 
ATOM     17  C   UNL     1      -4.160   0.156   0.969  0.00  0.00    +0.098 C 
ATOM     18  C   UNL     1      -3.059  -0.398   1.774  0.00  0.00    +0.197 C 
ATOM     19  O   UNL     1      -3.294  -1.262   2.615  0.00  0.00    -0.287 OA
ATOM     20  C   UNL     1      -1.668   0.103   1.482  0.00  0.00    +0.110 C 
ATOM     21  C   UNL     1      -0.646  -0.665   1.944  0.00  0.00    +0.291 C 
ATOM     22  O   UNL     1       0.656  -0.352   1.604  0.00  0.00    -0.461 OA
ENDROOT
BRANCH  11  23
ATOM     23  O   UNL     1       1.823   2.818  -0.209  0.00  0.00    -0.507 OA
ATOM     24  H   UNL     1       1.704   3.464   0.506  0.00  0.00    +0.292 HD
ENDBRANCH  11  23
BRANCH  16  25
ATOM     25  O   UNL     1      -4.979   1.675  -0.615  0.00  0.00    -0.505 OA
ATOM     26  H   UNL     1      -4.641   2.426  -1.140  0.00  0.00    +0.292 HD
ENDBRANCH  16  25
BRANCH  21  27
ATOM     27  O   UNL     1      -0.841  -1.795   2.724  0.00  0.00    -0.480 OA
ATOM     28  H   UNL     1      -1.795  -1.883   2.937  0.00  0.00    +0.295 HD
ENDBRANCH  21  27
TORSDOF 3
