REMARK  Name = 
REMARK  4 active torsions:
REMARK  status: ('A' for Active; 'I' for Inactive)
REMARK    1  A    between atoms: C_1  and  C_2
REMARK    2  A    between atoms: C_11  and  O_12
REMARK    3  A    between atoms: C_20  and  O_21
REMARK    4  A    between atoms: C_23  and  O_24
REMARK                            x       y       z     vdW  Elec       q    Type
REMARK                         _______ _______ _______ _____ _____    ______ ____
ROOT
ATOM      1  C   UNL     1      -3.490  -3.046  -0.597  0.00  0.00    +0.052 C 
ATOM      2  C   UNL     1      -2.208  -2.282  -0.264  0.00  0.00    +0.176 C 
ATOM      3  C   UNL     1      -2.349  -1.615   1.125  0.00  0.00    +0.079 C 
ATOM      4  C   UNL     1      -1.034  -1.117   1.647  0.00  0.00    +0.155 C 
ATOM      5  O   UNL     1      -1.008   0.308   1.822  0.00  0.00    -0.364 OA
ATOM      6  C   UNL     1      -0.841  -0.477   3.005  0.00  0.00    +0.170 C 
ATOM      7  C   UNL     1       0.460  -0.532   3.700  0.00  0.00    +0.007 C 
ATOM      8  C   UNL     1       1.709  -0.305   3.250  0.00  0.00    -0.002 C 
ATOM      9  C   UNL     1       2.113  -0.024   1.889  0.00  0.00    +0.003 C 
ATOM     10  C   UNL     1       2.321  -0.999   0.991  0.00  0.00    +0.045 C 
ATOM     11  C   UNL     1       2.752  -0.856  -0.381  0.00  0.00    +0.117 C 
ATOM     12  C   UNL     1       2.210  -0.088  -1.344  0.00  0.00    +0.055 C 
ATOM     13  C   UNL     1       1.076   0.842  -1.234  0.00  0.00    +0.018 C 
ATOM     14  C   UNL     1       1.376   2.151  -1.049  0.00  0.00    +0.096 C 
ATOM     15 CL   UNL     1       3.009   2.764  -1.024  0.00  0.00    -0.079 Cl
ATOM     16  C   UNL     1       0.328   3.188  -0.846  0.00  0.00    +0.201 C 
ATOM     17  O   UNL     1       0.573   4.383  -0.707  0.00  0.00    -0.286 OA
ATOM     18  C   UNL     1      -1.075   2.747  -0.819  0.00  0.00    +0.098 C 
ATOM     19  C   UNL     1      -1.399   1.465  -1.010  0.00  0.00    +0.135 C 
ATOM     20  C   UNL     1      -0.373   0.420  -1.250  0.00  0.00    +0.105 C 
ATOM     21  C   UNL     1      -0.732  -0.881  -1.459  0.00  0.00    +0.291 C 
ATOM     22  O   UNL     1      -2.031  -1.330  -1.333  0.00  0.00    -0.461 OA
ENDROOT
BRANCH  11  23
ATOM     23  O   UNL     1       3.796  -1.717  -0.665  0.00  0.00    -0.507 OA
ATOM     24  H   UNL     1       4.038  -1.610  -1.599  0.00  0.00    +0.292 HD
ENDBRANCH  11  23
BRANCH  19  25
ATOM     25  O   UNL     1      -2.728   1.086  -1.024  0.00  0.00    -0.506 OA
ATOM     26  H   UNL     1      -3.283   1.843  -0.777  0.00  0.00    +0.292 HD
ENDBRANCH  19  25
BRANCH  21  27
ATOM     27  O   UNL     1       0.170  -1.832  -1.883  0.00  0.00    -0.480 OA
ATOM     28  H   UNL     1      -0.385  -2.539  -2.253  0.00  0.00    +0.295 HD
ENDBRANCH  21  27
TORSDOF 3
