REMARK  Name = 
REMARK  3 active torsions:
REMARK  status: ('A' for Active; 'I' for Inactive)
REMARK    1  A    between atoms: C_1  and  C_2
REMARK    2  A    between atoms: C_17  and  O_18
REMARK    3  A    between atoms: C_20  and  O_21
REMARK                            x       y       z     vdW  Elec       q    Type
REMARK                         _______ _______ _______ _____ _____    ______ ____
ROOT
ATOM      1  C   UNL     1       0.752  -0.621   4.061  0.00  0.00    +0.052 C 
ATOM      2  C   UNL     1       0.043  -0.652   2.715  0.00  0.00    +0.176 C 
ATOM      3  C   UNL     1       0.043  -2.066   2.113  0.00  0.00    +0.079 C 
ATOM      4  C   UNL     1      -0.543  -2.037   0.735  0.00  0.00    +0.155 C 
ATOM      5  O   UNL     1       0.450  -1.769  -0.267  0.00  0.00    -0.364 OA
ATOM      6  C   UNL     1      -0.216  -3.036  -0.353  0.00  0.00    +0.170 C 
ATOM      7  C   UNL     1      -1.257  -3.311  -1.355  0.00  0.00    +0.007 C 
ATOM      8  C   UNL     1      -1.454  -2.725  -2.549  0.00  0.00    -0.002 C 
ATOM      9  C   UNL     1      -0.654  -1.665  -3.117  0.00  0.00    +0.003 C 
ATOM     10  C   UNL     1      -0.623  -0.368  -2.769  0.00  0.00    +0.046 C 
ATOM     11  C   UNL     1      -1.474   0.305  -1.736  0.00  0.00    +0.160 C 
ATOM     12  O   UNL     1      -2.484  -0.245  -1.293  0.00  0.00    -0.292 OA
ATOM     13  C   UNL     1      -1.165   1.746  -1.352  0.00  0.00    +0.116 C 
ATOM     14  C   UNL     1       0.284   2.106  -1.062  0.00  0.00    -0.001 A 
ATOM     15  C   UNL     1       1.088   2.715  -2.052  0.00  0.00    +0.087 A 
ATOM     16 CL   UNL     1       0.481   3.092  -3.635  0.00  0.00    -0.079 Cl
ATOM     17  C   UNL     1       2.422   3.060  -1.786  0.00  0.00    +0.139 A 
ATOM     18  C   UNL     1       2.989   2.836  -0.540  0.00  0.00    +0.093 A 
ATOM     19  C   UNL     1       2.214   2.260   0.459  0.00  0.00    +0.135 A 
ATOM     20  C   UNL     1       0.880   1.876   0.211  0.00  0.00    +0.105 A 
ATOM     21  C   UNL     1       0.103   1.288   1.331  0.00  0.00    +0.343 C 
ATOM     22  O   UNL     1      -0.988   1.699   1.687  0.00  0.00    -0.245 OA
ATOM     23  O   UNL     1       0.765   0.208   1.811  0.00  0.00    -0.458 OA
ENDROOT
BRANCH  17  24
ATOM     24  O   UNL     1       3.225   3.648  -2.727  0.00  0.00    -0.505 OA
ATOM     25  H   UNL     1       2.690   3.775  -3.534  0.00  0.00    +0.292 HD
ENDBRANCH  17  24
BRANCH  19  26
ATOM     26  O   UNL     1       2.757   2.111   1.707  0.00  0.00    -0.506 OA
ATOM     27  H   UNL     1       3.696   2.362   1.691  0.00  0.00    +0.292 HD
ENDBRANCH  19  26
TORSDOF 2
