REMARK  Name = 
REMARK  3 active torsions:
REMARK  status: ('A' for Active; 'I' for Inactive)
REMARK    1  A    between atoms: C_1  and  C_2
REMARK    2  A    between atoms: C_11  and  O_12
REMARK    3  A    between atoms: C_20  and  O_21
REMARK                            x       y       z     vdW  Elec       q    Type
REMARK                         _______ _______ _______ _____ _____    ______ ____
ROOT
ATOM      1  C   UNL     1      -1.966   3.331   1.071  0.00  0.00    +0.052 C 
ATOM      2  C   UNL     1      -1.969   1.802   1.102  0.00  0.00    +0.176 C 
ATOM      3  C   UNL     1      -1.393   1.260   2.420  0.00  0.00    +0.079 C 
ATOM      4  C   UNL     1       0.082   1.506   2.571  0.00  0.00    +0.155 C 
ATOM      5  O   UNL     1       0.545   1.661   3.917  0.00  0.00    -0.364 OA
ATOM      6  C   UNL     1       0.943   0.457   3.241  0.00  0.00    +0.170 C 
ATOM      7  C   UNL     1       2.294   0.241   2.712  0.00  0.00    +0.007 C 
ATOM      8  C   UNL     1       2.653  -0.274   1.523  0.00  0.00    -0.002 C 
ATOM      9  C   UNL     1       1.780  -0.705   0.447  0.00  0.00    +0.003 C 
ATOM     10  C   UNL     1       0.661  -1.428   0.608  0.00  0.00    +0.045 C 
ATOM     11  C   UNL     1      -0.251  -1.942  -0.393  0.00  0.00    +0.117 C 
ATOM     12  C   UNL     1      -0.562  -1.451  -1.606  0.00  0.00    +0.055 C 
ATOM     13  C   UNL     1      -0.025  -0.288  -2.317  0.00  0.00    +0.017 C 
ATOM     14  C   UNL     1       1.039  -0.458  -3.137  0.00  0.00    +0.092 C 
ATOM     15 CL   UNL     1       1.839  -1.985  -3.357  0.00  0.00    -0.079 Cl
ATOM     16  C   UNL     1       1.582   0.672  -3.954  0.00  0.00    +0.182 C 
ATOM     17  O   UNL     1       2.634   0.554  -4.585  0.00  0.00    -0.291 OA
ATOM     18  C   UNL     1       0.790   1.961  -4.034  0.00  0.00    +0.154 C 
ATOM     19  C   UNL     1      -0.325   2.053  -3.040  0.00  0.00    +0.116 C 
ATOM     20  C   UNL     1      -0.654   1.034  -2.221  0.00  0.00    +0.105 C 
ATOM     21  C   UNL     1      -1.708   1.329  -1.219  0.00  0.00    +0.343 C 
ATOM     22  O   UNL     1      -2.824   1.728  -1.522  0.00  0.00    -0.245 OA
ATOM     23  O   UNL     1      -1.174   1.274   0.020  0.00  0.00    -0.458 OA
ENDROOT
BRANCH  11  24
ATOM     24  O   UNL     1      -0.906  -3.063   0.086  0.00  0.00    -0.507 OA
ATOM     25  H   UNL     1      -1.465  -3.439  -0.614  0.00  0.00    +0.292 HD
ENDBRANCH  11  24
BRANCH  19  26
ATOM     26  O   UNL     1      -0.965   3.282  -3.052  0.00  0.00    -0.510 OA
ATOM     27  H   UNL     1      -1.843   3.213  -2.622  0.00  0.00    +0.292 HD
ENDBRANCH  19  26
TORSDOF 2
