REMARK  Name = 
REMARK  4 active torsions:
REMARK  status: ('A' for Active; 'I' for Inactive)
REMARK    1  A    between atoms: C_1  and  C_2
REMARK    2  A    between atoms: C_11  and  O_12
REMARK    3  A    between atoms: C_20  and  O_21
REMARK    4  A    between atoms: C_23  and  O_24
REMARK                            x       y       z     vdW  Elec       q    Type
REMARK                         _______ _______ _______ _____ _____    ______ ____
ROOT
ATOM      1  C   UNL     1       0.402   2.986  -2.376  0.00  0.00    +0.052 C 
ATOM      2  C   UNL     1       0.447   1.464  -2.235  0.00  0.00    +0.176 C 
ATOM      3  C   UNL     1      -0.946   0.813  -2.168  0.00  0.00    +0.079 C 
ATOM      4  C   UNL     1      -1.694   0.970  -0.875  0.00  0.00    +0.155 C 
ATOM      5  O   UNL     1      -3.082   1.310  -0.975  0.00  0.00    -0.364 OA
ATOM      6  C   UNL     1      -2.788  -0.034  -0.565  0.00  0.00    +0.170 C 
ATOM      7  C   UNL     1      -2.921  -0.526   0.814  0.00  0.00    +0.007 C 
ATOM      8  C   UNL     1      -2.030  -1.233   1.535  0.00  0.00    -0.002 C 
ATOM      9  C   UNL     1      -0.682  -1.577   1.121  0.00  0.00    +0.003 C 
ATOM     10  C   UNL     1      -0.360  -2.033  -0.098  0.00  0.00    +0.045 C 
ATOM     11  C   UNL     1       0.942  -2.230  -0.700  0.00  0.00    +0.117 C 
ATOM     12  C   UNL     1       2.123  -1.668  -0.387  0.00  0.00    +0.055 C 
ATOM     13  C   UNL     1       2.481  -0.820   0.757  0.00  0.00    +0.018 C 
ATOM     14  C   UNL     1       3.317  -1.365   1.677  0.00  0.00    +0.096 C 
ATOM     15 CL   UNL     1       4.007  -2.959   1.529  0.00  0.00    -0.079 Cl
ATOM     16  C   UNL     1       3.686  -0.654   2.935  0.00  0.00    +0.201 C 
ATOM     17  O   UNL     1       4.553  -1.044   3.711  0.00  0.00    -0.286 OA
ATOM     18  C   UNL     1       2.914   0.552   3.278  0.00  0.00    +0.098 C 
ATOM     19  C   UNL     1       2.102   1.109   2.376  0.00  0.00    +0.135 C 
ATOM     20  C   UNL     1       1.977   0.577   0.998  0.00  0.00    +0.105 C 
ATOM     21  C   UNL     1       1.461   1.356  -0.001  0.00  0.00    +0.291 C 
ATOM     22  O   UNL     1       1.398   0.910  -1.304  0.00  0.00    -0.461 OA
ENDROOT
BRANCH  11  23
ATOM     23  O   UNL     1       0.839  -3.040  -1.820  0.00  0.00    -0.507 OA
ATOM     24  H   UNL     1       1.720  -3.150  -2.213  0.00  0.00    +0.292 HD
ENDBRANCH  11  23
BRANCH  19  25
ATOM     25  O   UNL     1       1.348   2.227   2.692  0.00  0.00    -0.506 OA
ATOM     26  H   UNL     1       1.479   2.440   3.636  0.00  0.00    +0.292 HD
ENDBRANCH  19  25
BRANCH  21  27
ATOM     27  O   UNL     1       1.036   2.650   0.236  0.00  0.00    -0.480 OA
ATOM     28  H   UNL     1       1.037   2.792   1.203  0.00  0.00    +0.295 HD
ENDBRANCH  21  27
TORSDOF 3
