REMARK  Name = 
REMARK  3 active torsions:
REMARK  status: ('A' for Active; 'I' for Inactive)
REMARK    1  A    between atoms: C_1  and  C_2
REMARK    2  A    between atoms: C_17  and  O_18
REMARK    3  A    between atoms: C_23  and  O_24
REMARK                            x       y       z     vdW  Elec       q    Type
REMARK                         _______ _______ _______ _____ _____    ______ ____
ROOT
ATOM      1  C   UNL     1      -2.020  -0.522  -3.000  0.00  0.00    +0.052 C 
ATOM      2  C   UNL     1      -1.087   0.414  -2.224  0.00  0.00    +0.176 C 
ATOM      3  C   UNL     1       0.077   0.829  -3.163  0.00  0.00    +0.079 C 
ATOM      4  C   UNL     1       0.897   2.016  -2.725  0.00  0.00    +0.155 C 
ATOM      5  O   UNL     1       0.335   2.775  -1.658  0.00  0.00    -0.364 OA
ATOM      6  C   UNL     1       1.545   2.041  -1.371  0.00  0.00    +0.170 C 
ATOM      7  C   UNL     1       2.783   2.752  -1.070  0.00  0.00    +0.007 C 
ATOM      8  C   UNL     1       2.984   3.616  -0.060  0.00  0.00    -0.002 C 
ATOM      9  C   UNL     1       1.993   4.129   0.864  0.00  0.00    +0.003 C 
ATOM     10  C   UNL     1       1.027   3.499   1.550  0.00  0.00    +0.046 C 
ATOM     11  C   UNL     1       0.729   2.035   1.558  0.00  0.00    +0.160 C 
ATOM     12  O   UNL     1       1.626   1.214   1.736  0.00  0.00    -0.292 OA
ATOM     13  C   UNL     1      -0.742   1.651   1.357  0.00  0.00    +0.116 C 
ATOM     14  C   UNL     1      -1.087   0.298   1.955  0.00  0.00    -0.001 C 
ATOM     15  C   UNL     1      -1.195   0.171   3.303  0.00  0.00    +0.087 C 
ATOM     16 CL   UNL     1      -0.903   1.508   4.389  0.00  0.00    -0.079 Cl
ATOM     17  C   UNL     1      -1.583  -1.076   3.938  0.00  0.00    +0.139 C 
ATOM     18  C   UNL     1      -1.978  -2.138   3.240  0.00  0.00    +0.098 C 
ATOM     19  C   UNL     1      -1.991  -2.092   1.771  0.00  0.00    +0.197 C 
ATOM     20  O   UNL     1      -2.476  -3.040   1.153  0.00  0.00    -0.287 OA
ATOM     21  C   UNL     1      -1.384  -0.880   1.087  0.00  0.00    +0.106 C 
ATOM     22  C   UNL     1      -1.164  -1.035  -0.251  0.00  0.00    +0.291 C 
ATOM     23  O   UNL     1      -0.510  -0.089  -0.999  0.00  0.00    -0.461 OA
ENDROOT
BRANCH  17  24
ATOM     24  O   UNL     1      -1.567  -1.143   5.319  0.00  0.00    -0.505 OA
ATOM     25  H   UNL     1      -1.215  -0.298   5.657  0.00  0.00    +0.292 HD
ENDBRANCH  17  24
BRANCH  22  26
ATOM     26  O   UNL     1      -1.422  -2.220  -0.925  0.00  0.00    -0.480 OA
ATOM     27  H   UNL     1      -1.906  -2.838  -0.336  0.00  0.00    +0.295 HD
ENDBRANCH  22  26
TORSDOF 2
