REMARK  Name = 
REMARK  3 active torsions:
REMARK  status: ('A' for Active; 'I' for Inactive)
REMARK    1  A    between atoms: C_1  and  C_2
REMARK    2  A    between atoms: C_20  and  O_21
REMARK    3  A    between atoms: C_23  and  O_24
REMARK                            x       y       z     vdW  Elec       q    Type
REMARK                         _______ _______ _______ _____ _____    ______ ____
ROOT
ATOM      1  C   UNL     1       1.563  -1.546   2.620  0.00  0.00    +0.052 C 
ATOM      2  C   UNL     1       1.488  -0.054   2.303  0.00  0.00    +0.176 C 
ATOM      3  C   UNL     1       0.460   0.689   3.169  0.00  0.00    +0.079 C 
ATOM      4  C   UNL     1      -0.920   0.108   3.097  0.00  0.00    +0.155 C 
ATOM      5  O   UNL     1      -1.959   1.062   3.345  0.00  0.00    -0.364 OA
ATOM      6  C   UNL     1      -1.899   0.505   2.017  0.00  0.00    +0.170 C 
ATOM      7  C   UNL     1      -2.888  -0.486   1.574  0.00  0.00    +0.007 C 
ATOM      8  C   UNL     1      -3.214  -0.857   0.326  0.00  0.00    -0.002 C 
ATOM      9  C   UNL     1      -2.634  -0.343  -0.889  0.00  0.00    +0.003 C 
ATOM     10  C   UNL     1      -1.418  -0.599  -1.395  0.00  0.00    +0.046 C 
ATOM     11  C   UNL     1      -0.399  -1.534  -0.823  0.00  0.00    +0.160 C 
ATOM     12  O   UNL     1      -0.727  -2.424  -0.037  0.00  0.00    -0.292 OA
ATOM     13  C   UNL     1       1.056  -1.448  -1.311  0.00  0.00    +0.116 C 
ATOM     14  C   UNL     1       1.506  -0.148  -1.966  0.00  0.00    -0.001 C 
ATOM     15  C   UNL     1       1.521  -0.036  -3.317  0.00  0.00    +0.092 C 
ATOM     16 CL   UNL     1       0.945  -1.278  -4.386  0.00  0.00    -0.079 Cl
ATOM     17  C   UNL     1       2.028   1.184  -4.009  0.00  0.00    +0.201 C 
ATOM     18  O   UNL     1       1.941   1.366  -5.218  0.00  0.00    -0.286 OA
ATOM     19  C   UNL     1       2.692   2.203  -3.181  0.00  0.00    +0.098 C 
ATOM     20  C   UNL     1       2.688   2.109  -1.849  0.00  0.00    +0.135 C 
ATOM     21  C   UNL     1       1.996   1.007  -1.130  0.00  0.00    +0.101 C 
ATOM     22  C   UNL     1       1.827   1.073   0.226  0.00  0.00    +0.291 C 
ATOM     23  O   UNL     1       1.155   0.082   0.911  0.00  0.00    -0.461 OA
ENDROOT
BRANCH  20  24
ATOM     24  O   UNL     1       3.330   3.063  -1.076  0.00  0.00    -0.506 OA
ATOM     25  H   UNL     1       3.772   3.703  -1.666  0.00  0.00    +0.292 HD
ENDBRANCH  20  24
BRANCH  22  26
ATOM     26  O   UNL     1       2.262   2.145   0.985  0.00  0.00    -0.480 OA
ATOM     27  H   UNL     1       2.754   2.745   0.392  0.00  0.00    +0.295 HD
ENDBRANCH  22  26
TORSDOF 2
