REMARK  Name = 
REMARK  4 active torsions:
REMARK  status: ('A' for Active; 'I' for Inactive)
REMARK    1  A    between atoms: C_1  and  C_2
REMARK    2  A    between atoms: C_11  and  O_12
REMARK    3  A    between atoms: C_20  and  O_21
REMARK    4  A    between atoms: C_23  and  O_24
REMARK                            x       y       z     vdW  Elec       q    Type
REMARK                         _______ _______ _______ _____ _____    ______ ____
ROOT
ATOM      1  C   UNL     1       0.780  -3.551   1.441  0.00  0.00    +0.052 C 
ATOM      2  C   UNL     1       0.151  -2.651   0.380  0.00  0.00    +0.176 C 
ATOM      3  C   UNL     1       1.164  -2.360  -0.742  0.00  0.00    +0.079 C 
ATOM      4  C   UNL     1       0.667  -1.432  -1.816  0.00  0.00    +0.155 C 
ATOM      5  O   UNL     1       0.071  -2.072  -2.957  0.00  0.00    -0.364 OA
ATOM      6  C   UNL     1      -0.798  -1.280  -2.136  0.00  0.00    +0.170 C 
ATOM      7  C   UNL     1      -1.404  -0.017  -2.560  0.00  0.00    +0.007 C 
ATOM      8  C   UNL     1      -0.985   1.253  -2.636  0.00  0.00    -0.002 C 
ATOM      9  C   UNL     1       0.302   1.863  -2.432  0.00  0.00    +0.003 C 
ATOM     10  C   UNL     1       1.153   1.950  -1.399  0.00  0.00    +0.045 C 
ATOM     11  C   UNL     1       1.206   1.433  -0.050  0.00  0.00    +0.117 C 
ATOM     12  C   UNL     1       0.236   1.211   0.852  0.00  0.00    +0.055 C 
ATOM     13  C   UNL     1      -1.222   1.293   0.738  0.00  0.00    +0.018 C 
ATOM     14  C   UNL     1      -1.810   2.495   0.522  0.00  0.00    +0.096 C 
ATOM     15 CL   UNL     1      -0.940   3.998   0.397  0.00  0.00    -0.079 Cl
ATOM     16  C   UNL     1      -3.290   2.646   0.441  0.00  0.00    +0.201 C 
ATOM     17  O   UNL     1      -3.854   3.691   0.130  0.00  0.00    -0.286 OA
ATOM     18  C   UNL     1      -4.119   1.477   0.781  0.00  0.00    +0.098 C 
ATOM     19  C   UNL     1      -3.561   0.294   1.048  0.00  0.00    +0.135 C 
ATOM     20  C   UNL     1      -2.097   0.079   0.986  0.00  0.00    +0.105 C 
ATOM     21  C   UNL     1      -1.567  -1.178   1.133  0.00  0.00    +0.291 C 
ATOM     22  O   UNL     1      -0.206  -1.411   1.018  0.00  0.00    -0.461 OA
ENDROOT
BRANCH  11  23
ATOM     23  O   UNL     1       2.530   1.229   0.319  0.00  0.00    -0.507 OA
ATOM     24  H   UNL     1       2.552   0.840   1.209  0.00  0.00    +0.292 HD
ENDBRANCH  11  23
BRANCH  19  25
ATOM     25  O   UNL     1      -4.348  -0.797   1.383  0.00  0.00    -0.506 OA
ATOM     26  H   UNL     1      -5.284  -0.517   1.396  0.00  0.00    +0.292 HD
ENDBRANCH  19  25
BRANCH  21  27
ATOM     27  O   UNL     1      -2.341  -2.293   1.409  0.00  0.00    -0.480 OA
ATOM     28  H   UNL     1      -3.264  -1.988   1.508  0.00  0.00    +0.295 HD
ENDBRANCH  21  27
TORSDOF 3
