REMARK  Name = 
REMARK  3 active torsions:
REMARK  status: ('A' for Active; 'I' for Inactive)
REMARK    1  A    between atoms: C_1  and  C_2
REMARK    2  A    between atoms: C_11  and  O_12
REMARK    3  A    between atoms: C_20  and  O_21
REMARK                            x       y       z     vdW  Elec       q    Type
REMARK                         _______ _______ _______ _____ _____    ______ ____
ROOT
ATOM      1  C   UNL     1      -0.737   1.486  -3.289  0.00  0.00    +0.052 C 
ATOM      2  C   UNL     1      -1.092   1.215  -1.831  0.00  0.00    +0.176 C 
ATOM      3  C   UNL     1      -0.891   2.449  -0.941  0.00  0.00    +0.079 C 
ATOM      4  C   UNL     1       0.550   2.857  -0.821  0.00  0.00    +0.155 C 
ATOM      5  O   UNL     1       0.828   4.240  -1.053  0.00  0.00    -0.364 OA
ATOM      6  C   UNL     1       0.966   3.779   0.302  0.00  0.00    +0.170 C 
ATOM      7  C   UNL     1       2.269   3.541   0.935  0.00  0.00    +0.007 C 
ATOM      8  C   UNL     1       2.658   2.499   1.691  0.00  0.00    -0.002 C 
ATOM      9  C   UNL     1       1.888   1.324   2.052  0.00  0.00    +0.003 C 
ATOM     10  C   UNL     1       0.602   1.338   2.432  0.00  0.00    +0.045 C 
ATOM     11  C   UNL     1      -0.218   0.234   2.880  0.00  0.00    +0.117 C 
ATOM     12  C   UNL     1      -0.221  -1.045   2.468  0.00  0.00    +0.055 C 
ATOM     13  C   UNL     1       0.626  -1.705   1.469  0.00  0.00    +0.017 C 
ATOM     14  C   UNL     1       1.678  -2.438   1.901  0.00  0.00    +0.092 C 
ATOM     15 CL   UNL     1       2.094  -2.611   3.581  0.00  0.00    -0.079 Cl
ATOM     16  C   UNL     1       2.560  -3.174   0.946  0.00  0.00    +0.182 C 
ATOM     17  O   UNL     1       3.574  -3.760   1.329  0.00  0.00    -0.291 OA
ATOM     18  C   UNL     1       2.175  -3.223  -0.517  0.00  0.00    +0.154 C 
ATOM     19  C   UNL     1       1.033  -2.329  -0.883  0.00  0.00    +0.116 C 
ATOM     20  C   UNL     1       0.347  -1.608   0.027  0.00  0.00    +0.105 C 
ATOM     21  C   UNL     1      -0.747  -0.715  -0.460  0.00  0.00    +0.343 C 
ATOM     22  O   UNL     1      -1.893  -0.736  -0.036  0.00  0.00    -0.245 OA
ATOM     23  O   UNL     1      -0.234   0.158  -1.362  0.00  0.00    -0.458 OA
ENDROOT
BRANCH  11  24
ATOM     24  O   UNL     1      -1.147   0.668   3.809  0.00  0.00    -0.507 OA
ATOM     25  H   UNL     1      -1.737  -0.069   4.041  0.00  0.00    +0.292 HD
ENDBRANCH  11  24
BRANCH  19  26
ATOM     26  O   UNL     1       0.706  -2.302  -2.229  0.00  0.00    -0.510 OA
ATOM     27  H   UNL     1       1.339  -2.839  -2.740  0.00  0.00    +0.292 HD
ENDBRANCH  19  26
TORSDOF 2
