REMARK  Name = 
REMARK  4 active torsions:
REMARK  status: ('A' for Active; 'I' for Inactive)
REMARK    1  A    between atoms: C_1  and  C_2
REMARK    2  A    between atoms: C_11  and  O_12
REMARK    3  A    between atoms: C_17  and  O_18
REMARK    4  A    between atoms: C_20  and  O_21
REMARK                            x       y       z     vdW  Elec       q    Type
REMARK                         _______ _______ _______ _____ _____    ______ ____
ROOT
ATOM      1  C   UNL     1       1.578   2.659  -2.746  0.00  0.00    +0.052 C 
ATOM      2  C   UNL     1       1.551   2.096  -1.329  0.00  0.00    +0.176 C 
ATOM      3  C   UNL     1       2.951   2.143  -0.688  0.00  0.00    +0.079 C 
ATOM      4  C   UNL     1       3.163   1.092   0.353  0.00  0.00    +0.155 C 
ATOM      5  O   UNL     1       3.404   1.545   1.686  0.00  0.00    -0.364 OA
ATOM      6  C   UNL     1       2.165   0.847   1.480  0.00  0.00    +0.170 C 
ATOM      7  C   UNL     1       1.945  -0.567   1.806  0.00  0.00    +0.007 C 
ATOM      8  C   UNL     1       1.129  -1.137   2.701  0.00  0.00    -0.002 C 
ATOM      9  C   UNL     1       0.263  -0.518   3.667  0.00  0.00    +0.003 C 
ATOM     10  C   UNL     1      -0.799   0.290   3.542  0.00  0.00    +0.045 C 
ATOM     11  C   UNL     1      -1.489   0.901   2.426  0.00  0.00    +0.117 C 
ATOM     12  C   UNL     1      -1.791   0.427   1.208  0.00  0.00    +0.055 C 
ATOM     13  C   UNL     1      -1.380  -0.815   0.528  0.00  0.00    +0.018 A 
ATOM     14  C   UNL     1      -1.756  -2.091   0.981  0.00  0.00    +0.091 A 
ATOM     15 CL   UNL     1      -2.841  -2.315   2.317  0.00  0.00    -0.079 Cl
ATOM     16  C   UNL     1      -1.273  -3.237   0.332  0.00  0.00    +0.139 A 
ATOM     17  C   UNL     1      -0.426  -3.141  -0.766  0.00  0.00    +0.093 A 
ATOM     18  C   UNL     1      -0.071  -1.886  -1.248  0.00  0.00    +0.135 A 
ATOM     19  C   UNL     1      -0.567  -0.727  -0.634  0.00  0.00    +0.109 A 
ATOM     20  C   UNL     1      -0.263   0.603  -1.215  0.00  0.00    +0.344 C 
ATOM     21  O   UNL     1      -1.092   1.463  -1.452  0.00  0.00    -0.245 OA
ATOM     22  O   UNL     1       1.084   0.728  -1.357  0.00  0.00    -0.458 OA
ENDROOT
BRANCH  11  23
ATOM     23  O   UNL     1      -1.994   2.159   2.731  0.00  0.00    -0.507 OA
ATOM     24  H   UNL     1      -1.541   2.497   3.522  0.00  0.00    +0.292 HD
ENDBRANCH  11  23
BRANCH  16  25
ATOM     25  O   UNL     1      -1.605  -4.500   0.748  0.00  0.00    -0.505 OA
ATOM     26  H   UNL     1      -2.222  -4.406   1.499  0.00  0.00    +0.292 HD
ENDBRANCH  16  25
BRANCH  18  27
ATOM     27  O   UNL     1       0.769  -1.874  -2.329  0.00  0.00    -0.506 OA
ATOM     28  H   UNL     1       1.141  -0.979  -2.441  0.00  0.00    +0.292 HD
ENDBRANCH  18  27
TORSDOF 3
