REMARK  Name = 
REMARK  2 active torsions:
REMARK  status: ('A' for Active; 'I' for Inactive)
REMARK    1  A    between atoms: C_1  and  C_2
REMARK    2  A    between atoms: C_20  and  O_21
REMARK                            x       y       z     vdW  Elec       q    Type
REMARK                         _______ _______ _______ _____ _____    ______ ____
ROOT
ATOM      1  C   UNL     1      -3.926  -2.451  -1.023  0.00  0.00    +0.052 C 
ATOM      2  C   UNL     1      -2.409  -2.436  -0.844  0.00  0.00    +0.176 C 
ATOM      3  C   UNL     1      -2.026  -3.039   0.531  0.00  0.00    +0.079 C 
ATOM      4  C   UNL     1      -0.549  -3.313   0.723  0.00  0.00    +0.155 C 
ATOM      5  O   UNL     1       0.249  -3.027  -0.421  0.00  0.00    -0.364 OA
ATOM      6  C   UNL     1       0.414  -2.162   0.718  0.00  0.00    +0.170 C 
ATOM      7  C   UNL     1       1.705  -2.094   1.387  0.00  0.00    +0.007 C 
ATOM      8  C   UNL     1       2.925  -1.937   0.841  0.00  0.00    -0.002 C 
ATOM      9  C   UNL     1       3.347  -1.959  -0.546  0.00  0.00    +0.003 C 
ATOM     10  C   UNL     1       3.144  -1.174  -1.618  0.00  0.00    +0.046 C 
ATOM     11  C   UNL     1       2.321   0.045  -1.891  0.00  0.00    +0.160 C 
ATOM     12  O   UNL     1       2.662   0.785  -2.814  0.00  0.00    -0.292 OA
ATOM     13  C   UNL     1       1.067   0.271  -1.080  0.00  0.00    +0.116 C 
ATOM     14  C   UNL     1       0.080   1.305  -1.583  0.00  0.00    -0.001 C 
ATOM     15  C   UNL     1       0.324   2.628  -1.481  0.00  0.00    +0.088 C 
ATOM     16 CL   UNL     1       1.763   3.269  -0.761  0.00  0.00    -0.080 Cl
ATOM     17  C   UNL     1      -0.674   3.636  -1.954  0.00  0.00    +0.182 C 
ATOM     18  O   UNL     1      -0.492   4.846  -1.798  0.00  0.00    -0.291 OA
ATOM     19  C   UNL     1      -1.932   3.150  -2.646  0.00  0.00    +0.154 C 
ATOM     20  C   UNL     1      -2.137   1.667  -2.589  0.00  0.00    +0.116 C 
ATOM     21  C   UNL     1      -1.210   0.821  -2.101  0.00  0.00    +0.102 C 
ATOM     22  C   UNL     1      -1.571  -0.628  -2.155  0.00  0.00    +0.343 C 
ATOM     23  O   UNL     1      -1.470  -1.309  -3.165  0.00  0.00    -0.245 OA
ATOM     24  O   UNL     1      -1.982  -1.051  -0.924  0.00  0.00    -0.458 OA
ENDROOT
BRANCH  20  25
ATOM     25  O   UNL     1      -3.357   1.209  -3.060  0.00  0.00    -0.510 OA
ATOM     26  H   UNL     1      -3.831   1.933  -3.509  0.00  0.00    +0.292 HD
ENDBRANCH  20  25
TORSDOF 1
