REMARK  Name = 
REMARK  4 active torsions:
REMARK  status: ('A' for Active; 'I' for Inactive)
REMARK    1  A    between atoms: C_1  and  C_2
REMARK    2  A    between atoms: C_11  and  O_12
REMARK    3  A    between atoms: C_17  and  O_18
REMARK    4  A    between atoms: C_23  and  O_24
REMARK                            x       y       z     vdW  Elec       q    Type
REMARK                         _______ _______ _______ _____ _____    ______ ____
ROOT
ATOM      1  C   UNL     1      -2.568   3.870  -1.472  0.00  0.00    +0.052 C 
ATOM      2  C   UNL     1      -1.323   3.199  -0.897  0.00  0.00    +0.176 C 
ATOM      3  C   UNL     1      -0.379   2.639  -1.985  0.00  0.00    +0.079 C 
ATOM      4  C   UNL     1       0.800   1.974  -1.353  0.00  0.00    +0.155 C 
ATOM      5  O   UNL     1       0.787   0.552  -1.540  0.00  0.00    -0.364 OA
ATOM      6  C   UNL     1       1.913   1.252  -2.079  0.00  0.00    +0.170 C 
ATOM      7  C   UNL     1       3.235   1.262  -1.424  0.00  0.00    +0.007 C 
ATOM      8  C   UNL     1       3.688   0.519  -0.399  0.00  0.00    -0.002 C 
ATOM      9  C   UNL     1       2.965  -0.517   0.306  0.00  0.00    +0.003 C 
ATOM     10  C   UNL     1       1.964  -0.393   1.195  0.00  0.00    +0.045 C 
ATOM     11  C   UNL     1       1.379   0.812   1.756  0.00  0.00    +0.117 C 
ATOM     12  C   UNL     1       0.080   0.963   2.083  0.00  0.00    +0.055 C 
ATOM     13  C   UNL     1      -0.995  -0.020   1.877  0.00  0.00    +0.018 C 
ATOM     14  C   UNL     1      -1.155  -1.021   2.783  0.00  0.00    +0.091 C 
ATOM     15 CL   UNL     1      -0.242  -1.058   4.277  0.00  0.00    -0.079 Cl
ATOM     16  C   UNL     1      -2.064  -2.137   2.550  0.00  0.00    +0.139 C 
ATOM     17  C   UNL     1      -2.679  -2.321   1.378  0.00  0.00    +0.098 C 
ATOM     18  C   UNL     1      -2.522  -1.328   0.298  0.00  0.00    +0.197 C 
ATOM     19  O   UNL     1      -3.009  -1.555  -0.807  0.00  0.00    -0.287 OA
ATOM     20  C   UNL     1      -1.829  -0.042   0.645  0.00  0.00    +0.110 C 
ATOM     21  C   UNL     1      -2.098   1.020  -0.161  0.00  0.00    +0.291 C 
ATOM     22  O   UNL     1      -1.635   2.280   0.168  0.00  0.00    -0.461 OA
ENDROOT
BRANCH  11  23
ATOM     23  O   UNL     1       2.297   1.815   2.001  0.00  0.00    -0.507 OA
ATOM     24  H   UNL     1       1.836   2.561   2.416  0.00  0.00    +0.292 HD
ENDBRANCH  11  23
BRANCH  16  25
ATOM     25  O   UNL     1      -2.217  -3.031   3.592  0.00  0.00    -0.505 OA
ATOM     26  H   UNL     1      -2.818  -3.746   3.325  0.00  0.00    +0.292 HD
ENDBRANCH  16  25
BRANCH  21  27
ATOM     27  O   UNL     1      -2.892   0.926  -1.292  0.00  0.00    -0.480 OA
ATOM     28  H   UNL     1      -3.062  -0.023  -1.481  0.00  0.00    +0.295 HD
ENDBRANCH  21  27
TORSDOF 3
