REMARK  Name = 
REMARK  2 active torsions:
REMARK  status: ('A' for Active; 'I' for Inactive)
REMARK    1  A    between atoms: C_1  and  C_2
REMARK    2  A    between atoms: C_20  and  O_21
REMARK                            x       y       z     vdW  Elec       q    Type
REMARK                         _______ _______ _______ _____ _____    ______ ____
ROOT
ATOM      1  C   UNL     1       1.845   2.587   2.156  0.00  0.00    +0.052 C 
ATOM      2  C   UNL     1       0.700   1.826   1.487  0.00  0.00    +0.176 C 
ATOM      3  C   UNL     1      -0.203   1.190   2.575  0.00  0.00    +0.079 C 
ATOM      4  C   UNL     1      -1.474   0.545   2.068  0.00  0.00    +0.155 C 
ATOM      5  O   UNL     1      -1.657   0.627   0.658  0.00  0.00    -0.364 OA
ATOM      6  C   UNL     1      -1.354  -0.671   1.201  0.00  0.00    +0.170 C 
ATOM      7  C   UNL     1      -2.315  -1.756   1.079  0.00  0.00    +0.007 C 
ATOM      8  C   UNL     1      -2.945  -2.197  -0.023  0.00  0.00    -0.002 C 
ATOM      9  C   UNL     1      -3.009  -1.646  -1.362  0.00  0.00    +0.003 C 
ATOM     10  C   UNL     1      -2.128  -1.427  -2.352  0.00  0.00    +0.046 C 
ATOM     11  C   UNL     1      -0.649  -1.569  -2.513  0.00  0.00    +0.160 C 
ATOM     12  O   UNL     1      -0.201  -1.728  -3.650  0.00  0.00    -0.292 OA
ATOM     13  C   UNL     1       0.242  -1.407  -1.301  0.00  0.00    +0.116 C 
ATOM     14  C   UNL     1       1.721  -1.227  -1.574  0.00  0.00    -0.001 C 
ATOM     15  C   UNL     1       2.497  -2.257  -1.970  0.00  0.00    +0.088 C 
ATOM     16 CL   UNL     1       1.926  -3.885  -2.094  0.00  0.00    -0.080 Cl
ATOM     17  C   UNL     1       3.924  -2.026  -2.351  0.00  0.00    +0.182 C 
ATOM     18  O   UNL     1       4.712  -2.963  -2.487  0.00  0.00    -0.291 OA
ATOM     19  C   UNL     1       4.359  -0.600  -2.626  0.00  0.00    +0.154 C 
ATOM     20  C   UNL     1       3.501   0.419  -1.936  0.00  0.00    +0.116 C 
ATOM     21  C   UNL     1       2.303   0.114  -1.390  0.00  0.00    +0.102 C 
ATOM     22  C   UNL     1       1.654   1.214  -0.610  0.00  0.00    +0.343 C 
ATOM     23  O   UNL     1       1.604   2.365  -1.028  0.00  0.00    -0.245 OA
ATOM     24  O   UNL     1       1.274   0.800   0.631  0.00  0.00    -0.458 OA
ENDROOT
BRANCH  20  25
ATOM     25  O   UNL     1       4.077   1.679  -1.897  0.00  0.00    -0.510 OA
ATOM     26  H   UNL     1       3.392   2.352  -1.691  0.00  0.00    +0.292 HD
ENDBRANCH  20  25
TORSDOF 1
