REMARK  Name = 
REMARK  4 active torsions:
REMARK  status: ('A' for Active; 'I' for Inactive)
REMARK    1  A    between atoms: C_1  and  C_2
REMARK    2  A    between atoms: C_11  and  O_12
REMARK    3  A    between atoms: C_17  and  O_18
REMARK    4  A    between atoms: C_23  and  O_24
REMARK                            x       y       z     vdW  Elec       q    Type
REMARK                         _______ _______ _______ _____ _____    ______ ____
ROOT
ATOM      1  C   UNL     1       0.326   3.169  -1.990  0.00  0.00    +0.052 C 
ATOM      2  C   UNL     1       0.734   2.300  -0.797  0.00  0.00    +0.176 C 
ATOM      3  C   UNL     1       2.220   1.930  -0.924  0.00  0.00    +0.079 C 
ATOM      4  C   UNL     1       2.898   1.397   0.304  0.00  0.00    +0.155 C 
ATOM      5  O   UNL     1       2.896   2.277   1.435  0.00  0.00    -0.364 OA
ATOM      6  C   UNL     1       2.210   1.025   1.607  0.00  0.00    +0.170 C 
ATOM      7  C   UNL     1       2.777  -0.099   2.378  0.00  0.00    +0.007 C 
ATOM      8  C   UNL     1       2.871  -1.383   1.984  0.00  0.00    -0.002 C 
ATOM      9  C   UNL     1       2.426  -1.846   0.687  0.00  0.00    +0.003 C 
ATOM     10  C   UNL     1       1.163  -1.690   0.259  0.00  0.00    +0.045 C 
ATOM     11  C   UNL     1       0.711  -1.867  -1.105  0.00  0.00    +0.117 C 
ATOM     12  C   UNL     1      -0.549  -1.643  -1.522  0.00  0.00    +0.055 C 
ATOM     13  C   UNL     1      -1.719  -1.346  -0.682  0.00  0.00    +0.018 C 
ATOM     14  C   UNL     1      -2.543  -2.387  -0.385  0.00  0.00    +0.091 C 
ATOM     15 CL   UNL     1      -2.237  -4.014  -0.961  0.00  0.00    -0.079 Cl
ATOM     16  C   UNL     1      -3.746  -2.228   0.414  0.00  0.00    +0.139 C 
ATOM     17  C   UNL     1      -4.157  -1.044   0.862  0.00  0.00    +0.098 C 
ATOM     18  C   UNL     1      -3.373   0.167   0.577  0.00  0.00    +0.197 C 
ATOM     19  O   UNL     1      -3.806   1.257   0.949  0.00  0.00    -0.287 OA
ATOM     20  C   UNL     1      -2.056   0.008  -0.148  0.00  0.00    +0.110 C 
ATOM     21  C   UNL     1      -1.288   1.130  -0.231  0.00  0.00    +0.291 C 
ATOM     22  O   UNL     1      -0.041   1.085  -0.834  0.00  0.00    -0.461 OA
ENDROOT
BRANCH  11  23
ATOM     23  O   UNL     1       1.709  -2.215  -1.994  0.00  0.00    -0.507 OA
ATOM     24  H   UNL     1       1.331  -2.261  -2.887  0.00  0.00    +0.292 HD
ENDBRANCH  11  23
BRANCH  16  25
ATOM     25  O   UNL     1      -4.497  -3.353   0.703  0.00  0.00    -0.505 OA
ATOM     26  H   UNL     1      -4.049  -4.126   0.308  0.00  0.00    +0.292 HD
ENDBRANCH  16  25
BRANCH  21  27
ATOM     27  O   UNL     1      -1.684   2.356   0.286  0.00  0.00    -0.480 OA
ATOM     28  H   UNL     1      -2.592   2.283   0.652  0.00  0.00    +0.295 HD
ENDBRANCH  21  27
TORSDOF 3
