REMARK  Name = 
REMARK  4 active torsions:
REMARK  status: ('A' for Active; 'I' for Inactive)
REMARK    1  A    between atoms: C_1  and  C_2
REMARK    2  A    between atoms: C_11  and  O_12
REMARK    3  A    between atoms: C_17  and  O_18
REMARK    4  A    between atoms: C_20  and  O_21
REMARK                            x       y       z     vdW  Elec       q    Type
REMARK                         _______ _______ _______ _____ _____    ______ ____
ROOT
ATOM      1  C   UNL     1       1.588   0.658  -3.154  0.00  0.00    +0.052 C 
ATOM      2  C   UNL     1       1.824   1.667  -2.030  0.00  0.00    +0.176 C 
ATOM      3  C   UNL     1       3.207   1.527  -1.375  0.00  0.00    +0.079 C 
ATOM      4  C   UNL     1       3.592   0.114  -1.060  0.00  0.00    +0.155 C 
ATOM      5  O   UNL     1       4.447  -0.013   0.082  0.00  0.00    -0.364 OA
ATOM      6  C   UNL     1       3.129  -0.586   0.195  0.00  0.00    +0.170 C 
ATOM      7  C   UNL     1       2.932  -2.042   0.149  0.00  0.00    +0.007 C 
ATOM      8  C   UNL     1       1.958  -2.771   0.717  0.00  0.00    -0.002 C 
ATOM      9  C   UNL     1       0.875  -2.228   1.498  0.00  0.00    +0.003 C 
ATOM     10  C   UNL     1      -0.245  -1.643   1.041  0.00  0.00    +0.045 C 
ATOM     11  C   UNL     1      -0.717  -1.512  -0.327  0.00  0.00    +0.117 C 
ATOM     12  C   UNL     1      -1.530  -0.537  -0.774  0.00  0.00    +0.055 C 
ATOM     13  C   UNL     1      -1.952   0.638   0.014  0.00  0.00    +0.018 A 
ATOM     14  C   UNL     1      -2.975   0.566   0.977  0.00  0.00    +0.091 A 
ATOM     15 CL   UNL     1      -3.888  -0.888   1.234  0.00  0.00    -0.079 Cl
ATOM     16  C   UNL     1      -3.303   1.692   1.746  0.00  0.00    +0.139 A 
ATOM     17  C   UNL     1      -2.642   2.903   1.570  0.00  0.00    +0.093 A 
ATOM     18  C   UNL     1      -1.658   3.000   0.592  0.00  0.00    +0.135 A 
ATOM     19  C   UNL     1      -1.319   1.883  -0.185  0.00  0.00    +0.109 A 
ATOM     20  C   UNL     1      -0.387   2.072  -1.308  0.00  0.00    +0.344 C 
ATOM     21  O   UNL     1      -0.714   2.612  -2.352  0.00  0.00    -0.245 OA
ATOM     22  O   UNL     1       0.818   1.529  -1.005  0.00  0.00    -0.458 OA
ENDROOT
BRANCH  11  23
ATOM     23  O   UNL     1      -0.332  -2.546  -1.157  0.00  0.00    -0.507 OA
ATOM     24  H   UNL     1      -0.676  -2.380  -2.048  0.00  0.00    +0.292 HD
ENDBRANCH  11  23
BRANCH  16  25
ATOM     25  O   UNL     1      -4.284   1.659   2.702  0.00  0.00    -0.505 OA
ATOM     26  H   UNL     1      -4.664   0.760   2.704  0.00  0.00    +0.292 HD
ENDBRANCH  16  25
BRANCH  18  27
ATOM     27  O   UNL     1      -1.016   4.190   0.394  0.00  0.00    -0.506 OA
ATOM     28  H   UNL     1      -1.414   4.878   0.954  0.00  0.00    +0.292 HD
ENDBRANCH  18  27
TORSDOF 3
