REMARK  Name = 
REMARK  4 active torsions:
REMARK  status: ('A' for Active; 'I' for Inactive)
REMARK    1  A    between atoms: C_1  and  C_2
REMARK    2  A    between atoms: C_11  and  O_12
REMARK    3  A    between atoms: C_20  and  O_21
REMARK    4  A    between atoms: C_23  and  O_24
REMARK                            x       y       z     vdW  Elec       q    Type
REMARK                         _______ _______ _______ _____ _____    ______ ____
ROOT
ATOM      1  C   UNL     1       1.489   0.827   2.141  0.00  0.00    +0.052 C 
ATOM      2  C   UNL     1       0.673  -0.459   1.936  0.00  0.00    +0.176 C 
ATOM      3  C   UNL     1       1.562  -1.556   1.307  0.00  0.00    +0.079 C 
ATOM      4  C   UNL     1       2.192  -1.129   0.008  0.00  0.00    +0.155 C 
ATOM      5  O   UNL     1       3.535  -1.589  -0.190  0.00  0.00    -0.364 OA
ATOM      6  C   UNL     1       2.539  -2.143  -1.063  0.00  0.00    +0.170 C 
ATOM      7  C   UNL     1       2.396  -1.720  -2.466  0.00  0.00    +0.007 C 
ATOM      8  C   UNL     1       1.273  -1.322  -3.091  0.00  0.00    -0.002 C 
ATOM      9  C   UNL     1      -0.036  -1.232  -2.473  0.00  0.00    +0.003 C 
ATOM     10  C   UNL     1      -0.609  -2.262  -1.835  0.00  0.00    +0.045 C 
ATOM     11  C   UNL     1      -1.863  -2.345  -1.121  0.00  0.00    +0.117 C 
ATOM     12  C   UNL     1      -2.662  -1.375  -0.642  0.00  0.00    +0.055 C 
ATOM     13  C   UNL     1      -2.618   0.088  -0.754  0.00  0.00    +0.018 C 
ATOM     14  C   UNL     1      -3.070   0.690  -1.880  0.00  0.00    +0.096 C 
ATOM     15 CL   UNL     1      -3.523  -0.156  -3.325  0.00  0.00    -0.079 Cl
ATOM     16  C   UNL     1      -3.372   2.156  -1.888  0.00  0.00    +0.201 C 
ATOM     17  O   UNL     1      -3.521   2.816  -2.910  0.00  0.00    -0.286 OA
ATOM     18  C   UNL     1      -3.599   2.796  -0.569  0.00  0.00    +0.098 C 
ATOM     19  C   UNL     1      -3.154   2.192   0.538  0.00  0.00    +0.135 C 
ATOM     20  C   UNL     1      -2.366   0.954   0.438  0.00  0.00    +0.105 C 
ATOM     21  C   UNL     1      -1.407   0.651   1.356  0.00  0.00    +0.291 C 
ATOM     22  O   UNL     1      -0.471  -0.322   1.074  0.00  0.00    -0.461 OA
ENDROOT
BRANCH  11  23
ATOM     23  O   UNL     1      -2.170  -3.672  -0.856  0.00  0.00    -0.507 OA
ATOM     24  H   UNL     1      -3.007  -3.717  -0.366  0.00  0.00    +0.292 HD
ENDBRANCH  11  23
BRANCH  19  25
ATOM     25  O   UNL     1      -3.337   2.723   1.800  0.00  0.00    -0.506 OA
ATOM     26  H   UNL     1      -3.880   3.530   1.721  0.00  0.00    +0.292 HD
ENDBRANCH  19  25
BRANCH  21  27
ATOM     27  O   UNL     1      -1.285   1.343   2.546  0.00  0.00    -0.480 OA
ATOM     28  H   UNL     1      -2.044   1.956   2.603  0.00  0.00    +0.295 HD
ENDBRANCH  21  27
TORSDOF 3
