REMARK  Name = 
REMARK  3 active torsions:
REMARK  status: ('A' for Active; 'I' for Inactive)
REMARK    1  A    between atoms: C_1  and  C_2
REMARK    2  A    between atoms: C_17  and  O_18
REMARK    3  A    between atoms: C_23  and  O_24
REMARK                            x       y       z     vdW  Elec       q    Type
REMARK                         _______ _______ _______ _____ _____    ______ ____
ROOT
ATOM      1  C   UNL     1      -0.709  -0.225  -4.402  0.00  0.00    +0.052 C 
ATOM      2  C   UNL     1       0.112   0.473  -3.317  0.00  0.00    +0.176 C 
ATOM      3  C   UNL     1       1.596   0.044  -3.364  0.00  0.00    +0.079 C 
ATOM      4  C   UNL     1       1.852  -1.230  -2.630  0.00  0.00    +0.155 C 
ATOM      5  O   UNL     1       1.321  -2.393  -3.269  0.00  0.00    -0.364 OA
ATOM      6  C   UNL     1       2.747  -2.348  -3.115  0.00  0.00    +0.170 C 
ATOM      7  C   UNL     1       3.473  -3.112  -2.085  0.00  0.00    +0.007 C 
ATOM      8  C   UNL     1       3.047  -4.111  -1.293  0.00  0.00    -0.002 C 
ATOM      9  C   UNL     1       1.725  -4.692  -1.270  0.00  0.00    +0.003 C 
ATOM     10  C   UNL     1       0.600  -4.166  -0.760  0.00  0.00    +0.046 C 
ATOM     11  C   UNL     1       0.489  -2.854  -0.051  0.00  0.00    +0.160 C 
ATOM     12  O   UNL     1       1.410  -2.428   0.645  0.00  0.00    -0.292 OA
ATOM     13  C   UNL     1      -0.830  -2.099  -0.249  0.00  0.00    +0.116 C 
ATOM     14  C   UNL     1      -0.929  -0.902   0.692  0.00  0.00    -0.001 C 
ATOM     15  C   UNL     1      -1.414  -1.058   1.951  0.00  0.00    +0.087 C 
ATOM     16 CL   UNL     1      -2.017  -2.598   2.516  0.00  0.00    -0.079 Cl
ATOM     17  C   UNL     1      -1.390   0.021   2.929  0.00  0.00    +0.139 C 
ATOM     18  C   UNL     1      -0.739   1.166   2.706  0.00  0.00    +0.098 C 
ATOM     19  C   UNL     1      -0.092   1.403   1.403  0.00  0.00    +0.197 C 
ATOM     20  O   UNL     1       0.604   2.407   1.253  0.00  0.00    -0.287 OA
ATOM     21  C   UNL     1      -0.387   0.427   0.291  0.00  0.00    +0.106 C 
ATOM     22  C   UNL     1      -0.153   0.897  -0.965  0.00  0.00    +0.291 C 
ATOM     23  O   UNL     1      -0.519   0.152  -2.065  0.00  0.00    -0.461 OA
ENDROOT
BRANCH  17  24
ATOM     24  O   UNL     1      -2.039  -0.219   4.124  0.00  0.00    -0.505 OA
ATOM     25  H   UNL     1      -1.915   0.538   4.721  0.00  0.00    +0.292 HD
ENDBRANCH  17  24
BRANCH  22  26
ATOM     26  O   UNL     1       0.398   2.142  -1.225  0.00  0.00    -0.480 OA
ATOM     27  H   UNL     1       0.678   2.553  -0.378  0.00  0.00    +0.295 HD
ENDBRANCH  22  26
TORSDOF 2
