REMARK  Name = 
REMARK  4 active torsions:
REMARK  status: ('A' for Active; 'I' for Inactive)
REMARK    1  A    between atoms: C_1  and  C_2
REMARK    2  A    between atoms: C_11  and  O_12
REMARK    3  A    between atoms: C_17  and  O_18
REMARK    4  A    between atoms: C_23  and  O_24
REMARK                            x       y       z     vdW  Elec       q    Type
REMARK                         _______ _______ _______ _____ _____    ______ ____
ROOT
ATOM      1  C   UNL     1       1.433  -0.637  -3.734  0.00  0.00    +0.052 C 
ATOM      2  C   UNL     1       1.141   0.703  -3.056  0.00  0.00    +0.176 C 
ATOM      3  C   UNL     1       2.373   1.188  -2.262  0.00  0.00    +0.079 C 
ATOM      4  C   UNL     1       2.462   0.610  -0.881  0.00  0.00    +0.155 C 
ATOM      5  O   UNL     1       3.594   1.030  -0.103  0.00  0.00    -0.364 OA
ATOM      6  C   UNL     1       2.314   1.540   0.295  0.00  0.00    +0.170 C 
ATOM      7  C   UNL     1       1.621   1.182   1.536  0.00  0.00    +0.007 C 
ATOM      8  C   UNL     1       1.274   0.028   2.123  0.00  0.00    -0.002 C 
ATOM      9  C   UNL     1       1.536  -1.327   1.733  0.00  0.00    +0.003 C 
ATOM     10  C   UNL     1       0.971  -2.146   0.834  0.00  0.00    +0.045 C 
ATOM     11  C   UNL     1      -0.074  -2.062  -0.167  0.00  0.00    +0.117 C 
ATOM     12  C   UNL     1      -1.062  -1.176  -0.380  0.00  0.00    +0.055 C 
ATOM     13  C   UNL     1      -1.400   0.081   0.285  0.00  0.00    +0.018 C 
ATOM     14  C   UNL     1      -2.012   0.056   1.496  0.00  0.00    +0.091 C 
ATOM     15 CL   UNL     1      -2.411  -1.439   2.312  0.00  0.00    -0.079 Cl
ATOM     16  C   UNL     1      -2.410   1.274   2.185  0.00  0.00    +0.139 C 
ATOM     17  C   UNL     1      -2.256   2.486   1.653  0.00  0.00    +0.098 C 
ATOM     18  C   UNL     1      -1.646   2.642   0.323  0.00  0.00    +0.197 C 
ATOM     19  O   UNL     1      -1.531   3.767  -0.162  0.00  0.00    -0.287 OA
ATOM     20  C   UNL     1      -1.172   1.401  -0.382  0.00  0.00    +0.110 C 
ATOM     21  C   UNL     1      -0.534   1.581  -1.571  0.00  0.00    +0.291 C 
ATOM     22  O   UNL     1      -0.030   0.491  -2.252  0.00  0.00    -0.461 OA
ENDROOT
BRANCH  11  23
ATOM     23  O   UNL     1       0.018  -3.162  -1.015  0.00  0.00    -0.507 OA
ATOM     24  H   UNL     1      -0.633  -3.070  -1.730  0.00  0.00    +0.292 HD
ENDBRANCH  11  23
BRANCH  16  25
ATOM     25  O   UNL     1      -2.979   1.158   3.441  0.00  0.00    -0.505 OA
ATOM     26  H   UNL     1      -3.028   0.208   3.662  0.00  0.00    +0.292 HD
ENDBRANCH  16  25
BRANCH  21  27
ATOM     27  O   UNL     1      -0.339   2.819  -2.161  0.00  0.00    -0.480 OA
ATOM     28  H   UNL     1      -0.760   3.509  -1.603  0.00  0.00    +0.295 HD
ENDBRANCH  21  27
TORSDOF 3
