REMARK  Name = 
REMARK  4 active torsions:
REMARK  status: ('A' for Active; 'I' for Inactive)
REMARK    1  A    between atoms: C_1  and  C_2
REMARK    2  A    between atoms: C_11  and  O_12
REMARK    3  A    between atoms: C_17  and  O_18
REMARK    4  A    between atoms: C_20  and  O_21
REMARK                            x       y       z     vdW  Elec       q    Type
REMARK                         _______ _______ _______ _____ _____    ______ ____
ROOT
ATOM      1  C   UNL     1      -0.285   2.125  -1.737  0.00  0.00    +0.052 C 
ATOM      2  C   UNL     1      -0.452   1.675  -0.285  0.00  0.00    +0.176 C 
ATOM      3  C   UNL     1       0.719   2.147   0.593  0.00  0.00    +0.079 C 
ATOM      4  C   UNL     1       2.019   1.464   0.269  0.00  0.00    +0.155 C 
ATOM      5  O   UNL     1       3.199   2.226   0.544  0.00  0.00    -0.364 OA
ATOM      6  C   UNL     1       2.963   1.091   1.392  0.00  0.00    +0.170 C 
ATOM      7  C   UNL     1       3.704  -0.171   1.273  0.00  0.00    +0.007 C 
ATOM      8  C   UNL     1       3.221  -1.425   1.315  0.00  0.00    -0.002 C 
ATOM      9  C   UNL     1       1.832  -1.821   1.452  0.00  0.00    +0.003 C 
ATOM     10  C   UNL     1       0.976  -1.296   2.341  0.00  0.00    +0.045 C 
ATOM     11  C   UNL     1      -0.417  -1.613   2.578  0.00  0.00    +0.117 C 
ATOM     12  C   UNL     1      -1.334  -2.138   1.747  0.00  0.00    +0.055 C 
ATOM     13  C   UNL     1      -1.175  -2.631   0.366  0.00  0.00    +0.018 A 
ATOM     14  C   UNL     1      -0.901  -3.994   0.130  0.00  0.00    +0.091 A 
ATOM     15 CL   UNL     1      -0.634  -5.108   1.436  0.00  0.00    -0.079 Cl
ATOM     16  C   UNL     1      -0.853  -4.495  -1.179  0.00  0.00    +0.139 A 
ATOM     17  C   UNL     1      -1.108  -3.672  -2.268  0.00  0.00    +0.093 A 
ATOM     18  C   UNL     1      -1.404  -2.332  -2.050  0.00  0.00    +0.135 A 
ATOM     19  C   UNL     1      -1.400  -1.801  -0.750  0.00  0.00    +0.109 A 
ATOM     20  C   UNL     1      -1.648  -0.358  -0.623  0.00  0.00    +0.344 C 
ATOM     21  O   UNL     1      -2.667   0.174  -1.031  0.00  0.00    -0.245 OA
ATOM     22  O   UNL     1      -0.513   0.236  -0.203  0.00  0.00    -0.458 OA
ENDROOT
BRANCH  11  23
ATOM     23  O   UNL     1      -0.792  -1.215   3.850  0.00  0.00    -0.507 OA
ATOM     24  H   UNL     1      -1.717  -1.466   4.007  0.00  0.00    +0.292 HD
ENDBRANCH  11  23
BRANCH  16  25
ATOM     25  O   UNL     1      -0.579  -5.810  -1.445  0.00  0.00    -0.505 OA
ATOM     26  H   UNL     1      -0.431  -6.261  -0.592  0.00  0.00    +0.292 HD
ENDBRANCH  16  25
BRANCH  18  27
ATOM     27  O   UNL     1      -1.702  -1.589  -3.162  0.00  0.00    -0.506 OA
ATOM     28  H   UNL     1      -2.209  -0.794  -2.899  0.00  0.00    +0.292 HD
ENDBRANCH  18  27
TORSDOF 3
