REMARK  Name = 
REMARK  3 active torsions:
REMARK  status: ('A' for Active; 'I' for Inactive)
REMARK    1  A    between atoms: C_1  and  C_2
REMARK    2  A    between atoms: C_11  and  O_12
REMARK    3  A    between atoms: C_20  and  O_21
REMARK                            x       y       z     vdW  Elec       q    Type
REMARK                         _______ _______ _______ _____ _____    ______ ____
ROOT
ATOM      1  C   UNL     1      -1.678   2.108  -1.670  0.00  0.00    +0.052 C 
ATOM      2  C   UNL     1      -2.034   0.698  -1.197  0.00  0.00    +0.176 C 
ATOM      3  C   UNL     1      -2.961   0.730   0.029  0.00  0.00    +0.079 C 
ATOM      4  C   UNL     1      -2.286   1.238   1.272  0.00  0.00    +0.155 C 
ATOM      5  O   UNL     1      -3.138   1.925   2.195  0.00  0.00    -0.364 OA
ATOM      6  C   UNL     1      -2.652   0.639   2.613  0.00  0.00    +0.170 C 
ATOM      7  C   UNL     1      -1.590   0.471   3.609  0.00  0.00    +0.007 C 
ATOM      8  C   UNL     1      -0.536  -0.364   3.592  0.00  0.00    -0.002 C 
ATOM      9  C   UNL     1      -0.135  -1.295   2.554  0.00  0.00    +0.003 C 
ATOM     10  C   UNL     1      -0.962  -2.013   1.781  0.00  0.00    +0.045 C 
ATOM     11  C   UNL     1      -0.610  -2.993   0.773  0.00  0.00    +0.117 C 
ATOM     12  C   UNL     1       0.366  -2.959  -0.145  0.00  0.00    +0.055 C 
ATOM     13  C   UNL     1       1.429  -1.976  -0.363  0.00  0.00    +0.017 C 
ATOM     14  C   UNL     1       2.620  -2.157   0.255  0.00  0.00    +0.092 C 
ATOM     15 CL   UNL     1       2.945  -3.473   1.344  0.00  0.00    -0.079 Cl
ATOM     16  C   UNL     1       3.774  -1.239   0.002  0.00  0.00    +0.182 C 
ATOM     17  O   UNL     1       4.791  -1.288   0.696  0.00  0.00    -0.291 OA
ATOM     18  C   UNL     1       3.693  -0.275  -1.163  0.00  0.00    +0.154 C 
ATOM     19  C   UNL     1       2.309  -0.102  -1.706  0.00  0.00    +0.116 C 
ATOM     20  C   UNL     1       1.267  -0.852  -1.292  0.00  0.00    +0.105 C 
ATOM     21  C   UNL     1      -0.056  -0.464  -1.839  0.00  0.00    +0.343 C 
ATOM     22  O   UNL     1      -0.285  -0.377  -3.037  0.00  0.00    -0.245 OA
ATOM     23  O   UNL     1      -0.843  -0.028  -0.830  0.00  0.00    -0.458 OA
ENDROOT
BRANCH  11  24
ATOM     24  O   UNL     1      -1.471  -4.079   0.736  0.00  0.00    -0.507 OA
ATOM     25  H   UNL     1      -1.949  -4.125   1.583  0.00  0.00    +0.292 HD
ENDBRANCH  11  24
BRANCH  19  26
ATOM     26  O   UNL     1       2.218   0.900  -2.658  0.00  0.00    -0.510 OA
ATOM     27  H   UNL     1       1.401   0.788  -3.190  0.00  0.00    +0.292 HD
ENDBRANCH  19  26
TORSDOF 2
