REMARK  Name = 
REMARK  4 active torsions:
REMARK  status: ('A' for Active; 'I' for Inactive)
REMARK    1  A    between atoms: C_1  and  C_2
REMARK    2  A    between atoms: C_11  and  O_12
REMARK    3  A    between atoms: C_17  and  O_18
REMARK    4  A    between atoms: C_23  and  O_24
REMARK                            x       y       z     vdW  Elec       q    Type
REMARK                         _______ _______ _______ _____ _____    ______ ____
ROOT
ATOM      1  C   UNL     1      -0.035   2.331   3.256  0.00  0.00    +0.052 C 
ATOM      2  C   UNL     1       0.978   2.048   2.149  0.00  0.00    +0.176 C 
ATOM      3  C   UNL     1       1.239   3.275   1.263  0.00  0.00    +0.079 C 
ATOM      4  C   UNL     1       0.011   3.834   0.602  0.00  0.00    +0.155 C 
ATOM      5  O   UNL     1       0.323   4.578  -0.583  0.00  0.00    -0.364 OA
ATOM      6  C   UNL     1      -0.457   3.379  -0.762  0.00  0.00    +0.170 C 
ATOM      7  C   UNL     1      -1.877   3.499  -1.131  0.00  0.00    +0.007 C 
ATOM      8  C   UNL     1      -2.668   2.614  -1.758  0.00  0.00    -0.002 C 
ATOM      9  C   UNL     1      -2.284   1.284  -2.163  0.00  0.00    +0.003 C 
ATOM     10  C   UNL     1      -2.077   0.209  -1.383  0.00  0.00    +0.045 C 
ATOM     11  C   UNL     1      -2.256   0.058   0.051  0.00  0.00    +0.117 C 
ATOM     12  C   UNL     1      -1.561  -0.789   0.825  0.00  0.00    +0.055 C 
ATOM     13  C   UNL     1      -0.431  -1.629   0.417  0.00  0.00    +0.018 C 
ATOM     14  C   UNL     1      -0.677  -2.907   0.033  0.00  0.00    +0.091 C 
ATOM     15 CL   UNL     1      -2.284  -3.598   0.077  0.00  0.00    -0.079 Cl
ATOM     16  C   UNL     1       0.375  -3.787  -0.450  0.00  0.00    +0.139 C 
ATOM     17  C   UNL     1       1.637  -3.383  -0.598  0.00  0.00    +0.098 C 
ATOM     18  C   UNL     1       2.023  -2.008  -0.245  0.00  0.00    +0.197 C 
ATOM     19  O   UNL     1       3.183  -1.641  -0.424  0.00  0.00    -0.287 OA
ATOM     20  C   UNL     1       0.966  -1.112   0.343  0.00  0.00    +0.110 C 
ATOM     21  C   UNL     1       1.377   0.101   0.801  0.00  0.00    +0.291 C 
ATOM     22  O   UNL     1       0.460   0.960   1.378  0.00  0.00    -0.461 OA
ENDROOT
BRANCH  11  23
ATOM     23  O   UNL     1      -3.284   0.772   0.638  0.00  0.00    -0.507 OA
ATOM     24  H   UNL     1      -3.753   1.256  -0.060  0.00  0.00    +0.292 HD
ENDBRANCH  11  23
BRANCH  16  25
ATOM     25  O   UNL     1       0.040  -5.086  -0.785  0.00  0.00    -0.505 OA
ATOM     26  H   UNL     1      -0.914  -5.206  -0.616  0.00  0.00    +0.292 HD
ENDBRANCH  16  25
BRANCH  21  27
ATOM     27  O   UNL     1       2.689   0.540   0.721  0.00  0.00    -0.480 OA
ATOM     28  H   UNL     1       3.227  -0.135   0.252  0.00  0.00    +0.295 HD
ENDBRANCH  21  27
TORSDOF 3
