REMARK  Name = 
REMARK  4 active torsions:
REMARK  status: ('A' for Active; 'I' for Inactive)
REMARK    1  A    between atoms: C_1  and  C_2
REMARK    2  A    between atoms: C_11  and  O_12
REMARK    3  A    between atoms: C_17  and  O_18
REMARK    4  A    between atoms: C_23  and  O_24
REMARK                            x       y       z     vdW  Elec       q    Type
REMARK                         _______ _______ _______ _____ _____    ______ ____
ROOT
ATOM      1  C   UNL     1      -2.362   2.562   1.655  0.00  0.00    +0.052 C 
ATOM      2  C   UNL     1      -1.957   1.535   0.595  0.00  0.00    +0.176 C 
ATOM      3  C   UNL     1      -2.879   0.306   0.561  0.00  0.00    +0.079 C 
ATOM      4  C   UNL     1      -2.844  -0.508  -0.704  0.00  0.00    +0.155 C 
ATOM      5  O   UNL     1      -3.424   0.185  -1.820  0.00  0.00    -0.364 OA
ATOM      6  C   UNL     1      -2.044  -0.192  -1.954  0.00  0.00    +0.170 C 
ATOM      7  C   UNL     1      -1.666  -1.282  -2.864  0.00  0.00    +0.007 C 
ATOM      8  C   UNL     1      -0.679  -2.184  -2.749  0.00  0.00    -0.002 C 
ATOM      9  C   UNL     1       0.260  -2.325  -1.661  0.00  0.00    +0.003 C 
ATOM     10  C   UNL     1       1.124  -1.440  -1.135  0.00  0.00    +0.045 C 
ATOM     11  C   UNL     1       1.402  -0.059  -1.492  0.00  0.00    +0.117 C 
ATOM     12  C   UNL     1       1.917   0.859  -0.658  0.00  0.00    +0.055 C 
ATOM     13  C   UNL     1       2.302   0.668   0.746  0.00  0.00    +0.018 C 
ATOM     14  C   UNL     1       3.627   0.646   1.042  0.00  0.00    +0.091 C 
ATOM     15 CL   UNL     1       4.860   0.928  -0.168  0.00  0.00    -0.079 Cl
ATOM     16  C   UNL     1       4.118   0.347   2.379  0.00  0.00    +0.139 C 
ATOM     17  C   UNL     1       3.313  -0.042   3.367  0.00  0.00    +0.098 C 
ATOM     18  C   UNL     1       1.861  -0.128   3.144  0.00  0.00    +0.197 C 
ATOM     19  O   UNL     1       1.138  -0.587   4.026  0.00  0.00    -0.287 OA
ATOM     20  C   UNL     1       1.326   0.396   1.837  0.00  0.00    +0.110 C 
ATOM     21  C   UNL     1      -0.013   0.624   1.780  0.00  0.00    +0.291 C 
ATOM     22  O   UNL     1      -0.561   1.199   0.650  0.00  0.00    -0.461 OA
ENDROOT
BRANCH  11  23
ATOM     23  O   UNL     1       1.193   0.313  -2.806  0.00  0.00    -0.507 OA
ATOM     24  H   UNL     1       0.955  -0.482  -3.312  0.00  0.00    +0.292 HD
ENDBRANCH  11  23
BRANCH  16  25
ATOM     25  O   UNL     1       5.479   0.432   2.611  0.00  0.00    -0.505 OA
ATOM     26  H   UNL     1       5.912   0.701   1.779  0.00  0.00    +0.292 HD
ENDBRANCH  16  25
BRANCH  21  27
ATOM     27  O   UNL     1      -0.869   0.326   2.826  0.00  0.00    -0.480 OA
ATOM     28  H   UNL     1      -0.368  -0.126   3.540  0.00  0.00    +0.295 HD
ENDBRANCH  21  27
TORSDOF 3
