REMARK  Name = 
REMARK  3 active torsions:
REMARK  status: ('A' for Active; 'I' for Inactive)
REMARK    1  A    between atoms: C_1  and  C_2
REMARK    2  A    between atoms: C_17  and  O_18
REMARK    3  A    between atoms: C_20  and  O_21
REMARK                            x       y       z     vdW  Elec       q    Type
REMARK                         _______ _______ _______ _____ _____    ______ ____
ROOT
ATOM      1  C   UNL     1       1.713  -3.338  -1.077  0.00  0.00    +0.052 C 
ATOM      2  C   UNL     1       1.770  -1.818  -1.126  0.00  0.00    +0.176 C 
ATOM      3  C   UNL     1       2.900  -1.267  -0.234  0.00  0.00    +0.079 C 
ATOM      4  C   UNL     1       2.798   0.222  -0.126  0.00  0.00    +0.155 C 
ATOM      5  O   UNL     1       2.675   0.639   1.243  0.00  0.00    -0.364 OA
ATOM      6  C   UNL     1       3.793   1.162   0.526  0.00  0.00    +0.170 C 
ATOM      7  C   UNL     1       3.816   2.535  -0.008  0.00  0.00    +0.007 C 
ATOM      8  C   UNL     1       3.068   3.602   0.324  0.00  0.00    -0.002 C 
ATOM      9  C   UNL     1       2.058   3.692   1.354  0.00  0.00    +0.003 C 
ATOM     10  C   UNL     1       0.851   3.108   1.419  0.00  0.00    +0.046 C 
ATOM     11  C   UNL     1       0.236   2.211   0.395  0.00  0.00    +0.160 C 
ATOM     12  O   UNL     1       0.330   2.457  -0.806  0.00  0.00    -0.292 OA
ATOM     13  C   UNL     1      -0.487   0.979   0.927  0.00  0.00    +0.116 C 
ATOM     14  C   UNL     1      -1.691   0.575   0.096  0.00  0.00    -0.001 A 
ATOM     15  C   UNL     1      -2.969   1.090   0.438  0.00  0.00    +0.087 A 
ATOM     16 CL   UNL     1      -3.173   2.159   1.797  0.00  0.00    -0.079 Cl
ATOM     17  C   UNL     1      -4.107   0.773  -0.323  0.00  0.00    +0.139 A 
ATOM     18  C   UNL     1      -4.001  -0.026  -1.451  0.00  0.00    +0.093 A 
ATOM     19  C   UNL     1      -2.751  -0.503  -1.828  0.00  0.00    +0.135 A 
ATOM     20  C   UNL     1      -1.592  -0.239  -1.065  0.00  0.00    +0.105 A 
ATOM     21  C   UNL     1      -0.330  -0.815  -1.609  0.00  0.00    +0.343 C 
ATOM     22  O   UNL     1      -0.160  -0.920  -2.818  0.00  0.00    -0.245 OA
ATOM     23  O   UNL     1       0.499  -1.300  -0.656  0.00  0.00    -0.458 OA
ENDROOT
BRANCH  17  24
ATOM     24  O   UNL     1      -5.333   1.264   0.038  0.00  0.00    -0.505 OA
ATOM     25  H   UNL     1      -5.998   0.985  -0.613  0.00  0.00    +0.292 HD
ENDBRANCH  17  24
BRANCH  19  26
ATOM     26  O   UNL     1      -2.741  -1.234  -2.992  0.00  0.00    -0.506 OA
ATOM     27  H   UNL     1      -1.821  -1.260  -3.338  0.00  0.00    +0.292 HD
ENDBRANCH  19  26
TORSDOF 2
