REMARK  Name = 
REMARK  4 active torsions:
REMARK  status: ('A' for Active; 'I' for Inactive)
REMARK    1  A    between atoms: C_1  and  C_2
REMARK    2  A    between atoms: C_11  and  O_12
REMARK    3  A    between atoms: C_20  and  O_21
REMARK    4  A    between atoms: C_23  and  O_24
REMARK                            x       y       z     vdW  Elec       q    Type
REMARK                         _______ _______ _______ _____ _____    ______ ____
ROOT
ATOM      1  C   UNL     1      -0.859   0.921  -3.325  0.00  0.00    +0.052 C 
ATOM      2  C   UNL     1      -1.173   1.584  -1.983  0.00  0.00    +0.176 C 
ATOM      3  C   UNL     1       0.082   2.271  -1.407  0.00  0.00    +0.079 C 
ATOM      4  C   UNL     1       1.005   1.333  -0.685  0.00  0.00    +0.155 C 
ATOM      5  O   UNL     1       2.128   1.960  -0.047  0.00  0.00    -0.364 OA
ATOM      6  C   UNL     1       1.107   1.431   0.814  0.00  0.00    +0.170 C 
ATOM      7  C   UNL     1       1.314   0.291   1.711  0.00  0.00    +0.007 C 
ATOM      8  C   UNL     1       1.614  -1.002   1.533  0.00  0.00    -0.002 C 
ATOM      9  C   UNL     1       1.918  -1.724   0.331  0.00  0.00    +0.003 C 
ATOM     10  C   UNL     1       1.162  -2.235  -0.651  0.00  0.00    +0.045 C 
ATOM     11  C   UNL     1      -0.243  -2.280  -1.004  0.00  0.00    +0.117 C 
ATOM     12  C   UNL     1      -1.365  -1.956  -0.340  0.00  0.00    +0.055 C 
ATOM     13  C   UNL     1      -1.584  -1.370   0.983  0.00  0.00    +0.018 C 
ATOM     14  C   UNL     1      -1.415  -2.150   2.078  0.00  0.00    +0.096 C 
ATOM     15 CL   UNL     1      -0.928  -3.820   2.010  0.00  0.00    -0.079 Cl
ATOM     16  C   UNL     1      -1.681  -1.642   3.453  0.00  0.00    +0.201 C 
ATOM     17  O   UNL     1      -1.422  -2.271   4.475  0.00  0.00    -0.286 OA
ATOM     18  C   UNL     1      -2.316  -0.318   3.585  0.00  0.00    +0.098 C 
ATOM     19  C   UNL     1      -2.522   0.454   2.515  0.00  0.00    +0.135 C 
ATOM     20  C   UNL     1      -2.103   0.043   1.158  0.00  0.00    +0.105 C 
ATOM     21  C   UNL     1      -2.155   0.922   0.108  0.00  0.00    +0.291 C 
ATOM     22  O   UNL     1      -1.709   0.553  -1.143  0.00  0.00    -0.461 OA
ENDROOT
BRANCH  11  23
ATOM     23  O   UNL     1      -0.369  -2.785  -2.297  0.00  0.00    -0.507 OA
ATOM     24  H   UNL     1      -1.303  -2.756  -2.560  0.00  0.00    +0.292 HD
ENDBRANCH  11  23
BRANCH  19  25
ATOM     25  O   UNL     1      -3.129   1.693   2.640  0.00  0.00    -0.506 OA
ATOM     26  H   UNL     1      -3.377   1.828   3.575  0.00  0.00    +0.292 HD
ENDBRANCH  19  25
BRANCH  21  27
ATOM     27  O   UNL     1      -2.632   2.215   0.227  0.00  0.00    -0.480 OA
ATOM     28  H   UNL     1      -2.967   2.314   1.140  0.00  0.00    +0.295 HD
ENDBRANCH  21  27
TORSDOF 3
