REMARK  Name = 
REMARK  3 active torsions:
REMARK  status: ('A' for Active; 'I' for Inactive)
REMARK    1  A    between atoms: C_1  and  C_2
REMARK    2  A    between atoms: C_20  and  O_21
REMARK    3  A    between atoms: C_23  and  O_24
REMARK                            x       y       z     vdW  Elec       q    Type
REMARK                         _______ _______ _______ _____ _____    ______ ____
ROOT
ATOM      1  C   UNL     1      -2.997   0.263   0.270  0.00  0.00    +0.052 C 
ATOM      2  C   UNL     1      -1.778   1.133  -0.031  0.00  0.00    +0.176 C 
ATOM      3  C   UNL     1      -1.736   1.603  -1.492  0.00  0.00    +0.079 C 
ATOM      4  C   UNL     1      -1.752   0.499  -2.513  0.00  0.00    +0.155 C 
ATOM      5  O   UNL     1      -1.054   0.869  -3.708  0.00  0.00    -0.364 OA
ATOM      6  C   UNL     1      -0.503  -0.229  -2.954  0.00  0.00    +0.170 C 
ATOM      7  C   UNL     1      -0.556  -1.575  -3.534  0.00  0.00    +0.007 C 
ATOM      8  C   UNL     1      -1.007  -2.731  -3.022  0.00  0.00    -0.002 C 
ATOM      9  C   UNL     1      -1.601  -2.942  -1.727  0.00  0.00    +0.003 C 
ATOM     10  C   UNL     1      -1.052  -2.775  -0.516  0.00  0.00    +0.046 C 
ATOM     11  C   UNL     1       0.339  -2.320  -0.213  0.00  0.00    +0.160 C 
ATOM     12  O   UNL     1       1.233  -2.361  -1.055  0.00  0.00    -0.292 OA
ATOM     13  C   UNL     1       0.586  -1.880   1.229  0.00  0.00    +0.116 C 
ATOM     14  C   UNL     1       1.794  -0.966   1.331  0.00  0.00    -0.001 C 
ATOM     15  C   UNL     1       3.016  -1.493   1.588  0.00  0.00    +0.092 C 
ATOM     16 CL   UNL     1       3.309  -3.197   1.761  0.00  0.00    -0.079 Cl
ATOM     17  C   UNL     1       4.226  -0.641   1.767  0.00  0.00    +0.201 C 
ATOM     18  O   UNL     1       5.357  -1.085   1.938  0.00  0.00    -0.286 OA
ATOM     19  C   UNL     1       4.027   0.816   1.791  0.00  0.00    +0.098 C 
ATOM     20  C   UNL     1       2.830   1.351   1.535  0.00  0.00    +0.135 C 
ATOM     21  C   UNL     1       1.646   0.525   1.172  0.00  0.00    +0.101 C 
ATOM     22  C   UNL     1       0.502   1.126   0.713  0.00  0.00    +0.291 C 
ATOM     23  O   UNL     1      -0.599   0.385   0.313  0.00  0.00    -0.461 OA
ENDROOT
BRANCH  20  24
ATOM     24  O   UNL     1       2.653   2.726   1.586  0.00  0.00    -0.506 OA
ATOM     25  H   UNL     1       3.501   3.140   1.839  0.00  0.00    +0.292 HD
ENDBRANCH  20  24
BRANCH  22  26
ATOM     26  O   UNL     1       0.387   2.501   0.591  0.00  0.00    -0.480 OA
ATOM     27  H   UNL     1       1.218   2.896   0.920  0.00  0.00    +0.295 HD
ENDBRANCH  22  26
TORSDOF 2
