REMARK  Name = 
REMARK  4 active torsions:
REMARK  status: ('A' for Active; 'I' for Inactive)
REMARK    1  A    between atoms: C_1  and  C_2
REMARK    2  A    between atoms: C_11  and  O_12
REMARK    3  A    between atoms: C_17  and  O_18
REMARK    4  A    between atoms: C_20  and  O_21
REMARK                            x       y       z     vdW  Elec       q    Type
REMARK                         _______ _______ _______ _____ _____    ______ ____
ROOT
ATOM      1  C   UNL     1      -3.428   0.042   2.148  0.00  0.00    +0.052 C 
ATOM      2  C   UNL     1      -1.959   0.414   2.311  0.00  0.00    +0.176 C 
ATOM      3  C   UNL     1      -1.735   1.917   2.034  0.00  0.00    +0.079 C 
ATOM      4  C   UNL     1      -0.400   2.414   2.527  0.00  0.00    +0.155 C 
ATOM      5  O   UNL     1       0.728   1.657   2.070  0.00  0.00    -0.364 OA
ATOM      6  C   UNL     1       0.710   3.033   1.678  0.00  0.00    +0.170 C 
ATOM      7  C   UNL     1       0.511   3.518   0.297  0.00  0.00    +0.007 C 
ATOM      8  C   UNL     1       0.220   2.875  -0.849  0.00  0.00    -0.002 C 
ATOM      9  C   UNL     1      -0.056   1.464  -0.945  0.00  0.00    +0.003 C 
ATOM     10  C   UNL     1      -0.708   0.872  -1.955  0.00  0.00    +0.045 C 
ATOM     11  C   UNL     1      -1.278  -0.465  -1.890  0.00  0.00    +0.117 C 
ATOM     12  C   UNL     1      -0.804  -1.565  -1.285  0.00  0.00    +0.055 C 
ATOM     13  C   UNL     1       0.472  -1.760  -0.570  0.00  0.00    +0.018 A 
ATOM     14  C   UNL     1       1.657  -2.003  -1.306  0.00  0.00    +0.091 A 
ATOM     15 CL   UNL     1       1.653  -1.981  -3.047  0.00  0.00    -0.079 Cl
ATOM     16  C   UNL     1       2.860  -2.300  -0.645  0.00  0.00    +0.139 A 
ATOM     17  C   UNL     1       2.905  -2.385   0.742  0.00  0.00    +0.093 A 
ATOM     18  C   UNL     1       1.747  -2.153   1.477  0.00  0.00    +0.135 A 
ATOM     19  C   UNL     1       0.536  -1.808   0.844  0.00  0.00    +0.109 A 
ATOM     20  C   UNL     1      -0.594  -1.465   1.747  0.00  0.00    +0.344 C 
ATOM     21  O   UNL     1      -0.770  -2.042   2.812  0.00  0.00    -0.245 OA
ATOM     22  O   UNL     1      -1.206  -0.337   1.335  0.00  0.00    -0.458 OA
ENDROOT
BRANCH  11  23
ATOM     23  O   UNL     1      -2.498  -0.586  -2.539  0.00  0.00    -0.507 OA
ATOM     24  H   UNL     1      -2.811   0.300  -2.785  0.00  0.00    +0.292 HD
ENDBRANCH  11  23
BRANCH  16  25
ATOM     25  O   UNL     1       4.002  -2.530  -1.366  0.00  0.00    -0.505 OA
ATOM     26  H   UNL     1       4.742  -2.697  -0.759  0.00  0.00    +0.292 HD
ENDBRANCH  16  25
BRANCH  18  27
ATOM     27  O   UNL     1       1.881  -2.287   2.837  0.00  0.00    -0.506 OA
ATOM     28  H   UNL     1       0.989  -2.288   3.248  0.00  0.00    +0.292 HD
ENDBRANCH  18  27
TORSDOF 3
