REMARK  Name = 
REMARK  3 active torsions:
REMARK  status: ('A' for Active; 'I' for Inactive)
REMARK    1  A    between atoms: C_1  and  C_2
REMARK    2  A    between atoms: C_17  and  O_18
REMARK    3  A    between atoms: C_20  and  O_21
REMARK                            x       y       z     vdW  Elec       q    Type
REMARK                         _______ _______ _______ _____ _____    ______ ____
ROOT
ATOM      1  C   UNL     1       0.481   1.190  -2.863  0.00  0.00    +0.052 C 
ATOM      2  C   UNL     1      -0.507   0.079  -2.511  0.00  0.00    +0.176 C 
ATOM      3  C   UNL     1      -1.984   0.463  -2.716  0.00  0.00    +0.079 C 
ATOM      4  C   UNL     1      -2.402   1.833  -2.250  0.00  0.00    +0.155 C 
ATOM      5  O   UNL     1      -3.728   2.157  -2.713  0.00  0.00    -0.364 OA
ATOM      6  C   UNL     1      -3.560   2.055  -1.296  0.00  0.00    +0.170 C 
ATOM      7  C   UNL     1      -3.598   3.259  -0.452  0.00  0.00    +0.007 C 
ATOM      8  C   UNL     1      -2.944   3.470   0.702  0.00  0.00    -0.002 C 
ATOM      9  C   UNL     1      -2.029   2.508   1.261  0.00  0.00    +0.003 C 
ATOM     10  C   UNL     1      -0.780   2.369   0.798  0.00  0.00    +0.046 C 
ATOM     11  C   UNL     1       0.105   1.251   1.210  0.00  0.00    +0.160 C 
ATOM     12  O   UNL     1       1.323   1.419   1.178  0.00  0.00    -0.292 OA
ATOM     13  C   UNL     1      -0.548  -0.071   1.576  0.00  0.00    +0.116 C 
ATOM     14  C   UNL     1       0.409  -1.246   1.579  0.00  0.00    -0.001 A 
ATOM     15  C   UNL     1       0.775  -1.843   2.814  0.00  0.00    +0.087 A 
ATOM     16 CL   UNL     1       0.176  -1.263   4.341  0.00  0.00    -0.079 Cl
ATOM     17  C   UNL     1       1.647  -2.938   2.861  0.00  0.00    +0.139 A 
ATOM     18  C   UNL     1       2.186  -3.460   1.702  0.00  0.00    +0.093 A 
ATOM     19  C   UNL     1       1.866  -2.876   0.480  0.00  0.00    +0.135 A 
ATOM     20  C   UNL     1       0.982  -1.770   0.383  0.00  0.00    +0.105 A 
ATOM     21  C   UNL     1       0.757  -1.239  -1.005  0.00  0.00    +0.343 C 
ATOM     22  O   UNL     1       1.466  -1.617  -1.933  0.00  0.00    -0.245 OA
ATOM     23  O   UNL     1      -0.287  -0.381  -1.153  0.00  0.00    -0.458 OA
ENDROOT
BRANCH  17  24
ATOM     24  O   UNL     1       2.007  -3.537   4.038  0.00  0.00    -0.505 OA
ATOM     25  H   UNL     1       1.586  -3.038   4.762  0.00  0.00    +0.292 HD
ENDBRANCH  17  24
BRANCH  19  26
ATOM     26  O   UNL     1       2.480  -3.470  -0.597  0.00  0.00    -0.506 OA
ATOM     27  H   UNL     1       2.326  -2.921  -1.397  0.00  0.00    +0.292 HD
ENDBRANCH  19  26
TORSDOF 2
