REMARK  Name = 
REMARK  3 active torsions:
REMARK  status: ('A' for Active; 'I' for Inactive)
REMARK    1  A    between atoms: C_1  and  C_2
REMARK    2  A    between atoms: C_17  and  O_18
REMARK    3  A    between atoms: C_23  and  O_24
REMARK                            x       y       z     vdW  Elec       q    Type
REMARK                         _______ _______ _______ _____ _____    ______ ____
ROOT
ATOM      1  C   UNL     1       0.325   1.978  -2.602  0.00  0.00    +0.052 C 
ATOM      2  C   UNL     1       0.260   2.554  -1.179  0.00  0.00    +0.176 C 
ATOM      3  C   UNL     1       1.651   2.688  -0.744  0.00  0.00    +0.079 C 
ATOM      4  C   UNL     1       1.934   3.280   0.611  0.00  0.00    +0.155 C 
ATOM      5  O   UNL     1       1.131   4.369   0.981  0.00  0.00    -0.364 OA
ATOM      6  C   UNL     1       1.108   3.123   1.681  0.00  0.00    +0.170 C 
ATOM      7  C   UNL     1       1.572   3.294   3.046  0.00  0.00    +0.007 C 
ATOM      8  C   UNL     1       1.839   2.226   3.835  0.00  0.00    -0.002 C 
ATOM      9  C   UNL     1       1.720   0.886   3.458  0.00  0.00    +0.003 C 
ATOM     10  C   UNL     1       1.610  -0.345   3.112  0.00  0.00    +0.046 C 
ATOM     11  C   UNL     1       1.248  -0.981   1.825  0.00  0.00    +0.160 C 
ATOM     12  O   UNL     1       1.070  -2.253   1.792  0.00  0.00    -0.292 OA
ATOM     13  C   UNL     1       1.051  -0.369   0.491  0.00  0.00    +0.116 C 
ATOM     14  C   UNL     1       0.056  -1.128  -0.340  0.00  0.00    -0.001 C 
ATOM     15  C   UNL     1       0.326  -2.352  -0.686  0.00  0.00    +0.087 C 
ATOM     16 CL   UNL     1       1.829  -3.211  -0.264  0.00  0.00    -0.079 Cl
ATOM     17  C   UNL     1      -0.665  -3.174  -1.424  0.00  0.00    +0.139 C 
ATOM     18  C   UNL     1      -1.833  -2.722  -1.763  0.00  0.00    +0.098 C 
ATOM     19  C   UNL     1      -2.175  -1.356  -1.409  0.00  0.00    +0.197 C 
ATOM     20  O   UNL     1      -3.340  -0.941  -1.761  0.00  0.00    -0.287 OA
ATOM     21  C   UNL     1      -1.228  -0.507  -0.685  0.00  0.00    +0.106 C 
ATOM     22  C   UNL     1      -1.492   0.792  -0.695  0.00  0.00    +0.291 C 
ATOM     23  O   UNL     1      -0.682   1.852  -0.451  0.00  0.00    -0.461 OA
ENDROOT
BRANCH  17  24
ATOM     24  O   UNL     1      -0.323  -4.499  -1.770  0.00  0.00    -0.505 OA
ATOM     25  H   UNL     1       0.570  -4.734  -2.129  0.00  0.00    +0.292 HD
ENDBRANCH  17  24
BRANCH  22  26
ATOM     26  O   UNL     1      -2.844   1.119  -1.041  0.00  0.00    -0.480 OA
ATOM     27  H   UNL     1      -3.458   1.178  -0.221  0.00  0.00    +0.295 HD
ENDBRANCH  22  26
TORSDOF 2
