REMARK  Name = 
REMARK  2 active torsions:
REMARK  status: ('A' for Active; 'I' for Inactive)
REMARK    1  A    between atoms: C_1  and  C_2
REMARK    2  A    between atoms: C_20  and  O_21
REMARK                            x       y       z     vdW  Elec       q    Type
REMARK                         _______ _______ _______ _____ _____    ______ ____
ROOT
ATOM      1  C   UNL     1       1.621  -3.403  -1.422  0.00  0.00    +0.052 C 
ATOM      2  C   UNL     1       1.618  -1.880  -1.490  0.00  0.00    +0.176 C 
ATOM      3  C   UNL     1       2.845  -1.297  -0.749  0.00  0.00    +0.079 C 
ATOM      4  C   UNL     1       2.738   0.188  -0.616  0.00  0.00    +0.155 C 
ATOM      5  O   UNL     1       2.498   0.546   0.754  0.00  0.00    -0.364 OA
ATOM      6  C   UNL     1       3.638   1.149   0.154  0.00  0.00    +0.170 C 
ATOM      7  C   UNL     1       3.603   2.556  -0.285  0.00  0.00    +0.007 C 
ATOM      8  C   UNL     1       2.987   3.615   0.269  0.00  0.00    -0.002 C 
ATOM      9  C   UNL     1       2.240   3.655   1.506  0.00  0.00    +0.003 C 
ATOM     10  C   UNL     1       0.940   3.393   1.712  0.00  0.00    +0.046 C 
ATOM     11  C   UNL     1      -0.039   2.973   0.671  0.00  0.00    +0.160 C 
ATOM     12  O   UNL     1      -0.655   3.813   0.021  0.00  0.00    -0.292 OA
ATOM     13  C   UNL     1      -0.208   1.473   0.481  0.00  0.00    +0.116 C 
ATOM     14  C   UNL     1      -1.566   0.883   0.169  0.00  0.00    -0.001 C 
ATOM     15  C   UNL     1      -2.685   1.185   0.859  0.00  0.00    +0.088 C 
ATOM     16 CL   UNL     1      -2.702   2.253   2.221  0.00  0.00    -0.080 Cl
ATOM     17  C   UNL     1      -3.993   0.536   0.531  0.00  0.00    +0.182 C 
ATOM     18  O   UNL     1      -5.013   0.781   1.178  0.00  0.00    -0.291 OA
ATOM     19  C   UNL     1      -4.059  -0.441  -0.628  0.00  0.00    +0.154 C 
ATOM     20  C   UNL     1      -2.734  -0.763  -1.246  0.00  0.00    +0.116 C 
ATOM     21  C   UNL     1      -1.593  -0.154  -0.877  0.00  0.00    +0.102 C 
ATOM     22  C   UNL     1      -0.368  -0.560  -1.627  0.00  0.00    +0.343 C 
ATOM     23  O   UNL     1      -0.070  -0.099  -2.720  0.00  0.00    -0.245 OA
ATOM     24  O   UNL     1       0.378  -1.428  -0.886  0.00  0.00    -0.458 OA
ENDROOT
BRANCH  20  25
ATOM     25  O   UNL     1      -2.746  -1.743  -2.225  0.00  0.00    -0.510 OA
ATOM     26  H   UNL     1      -3.666  -1.986  -2.439  0.00  0.00    +0.292 HD
ENDBRANCH  20  25
TORSDOF 1
