REMARK  Name = 
REMARK  3 active torsions:
REMARK  status: ('A' for Active; 'I' for Inactive)
REMARK    1  A    between atoms: C_1  and  C_2
REMARK    2  A    between atoms: C_17  and  O_18
REMARK    3  A    between atoms: C_23  and  O_24
REMARK                            x       y       z     vdW  Elec       q    Type
REMARK                         _______ _______ _______ _____ _____    ______ ____
ROOT
ATOM      1  C   UNL     1       2.440   2.601   1.563  0.00  0.00    +0.052 C 
ATOM      2  C   UNL     1       1.533   2.684   0.334  0.00  0.00    +0.176 C 
ATOM      3  C   UNL     1       0.143   3.264   0.685  0.00  0.00    +0.079 C 
ATOM      4  C   UNL     1      -0.790   2.219   1.201  0.00  0.00    +0.155 C 
ATOM      5  O   UNL     1      -0.433   1.744   2.506  0.00  0.00    -0.364 OA
ATOM      6  C   UNL     1      -1.720   2.363   2.385  0.00  0.00    +0.170 C 
ATOM      7  C   UNL     1      -2.952   1.559   2.530  0.00  0.00    +0.007 C 
ATOM      8  C   UNL     1      -3.337   0.380   2.003  0.00  0.00    -0.002 C 
ATOM      9  C   UNL     1      -2.630  -0.452   1.055  0.00  0.00    +0.003 C 
ATOM     10  C   UNL     1      -1.389  -0.933   1.225  0.00  0.00    +0.046 C 
ATOM     11  C   UNL     1      -0.703  -1.590   0.079  0.00  0.00    +0.160 C 
ATOM     12  O   UNL     1      -1.351  -2.174  -0.788  0.00  0.00    -0.292 OA
ATOM     13  C   UNL     1       0.822  -1.488   0.041  0.00  0.00    +0.116 C 
ATOM     14  C   UNL     1       1.294  -1.351  -1.403  0.00  0.00    -0.001 C 
ATOM     15  C   UNL     1       1.692  -2.431  -2.120  0.00  0.00    +0.087 C 
ATOM     16 CL   UNL     1       1.841  -4.018  -1.416  0.00  0.00    -0.079 Cl
ATOM     17  C   UNL     1       1.955  -2.349  -3.550  0.00  0.00    +0.139 C 
ATOM     18  C   UNL     1       1.658  -1.267  -4.271  0.00  0.00    +0.098 C 
ATOM     19  C   UNL     1       1.128  -0.065  -3.606  0.00  0.00    +0.197 C 
ATOM     20  O   UNL     1       0.726   0.884  -4.276  0.00  0.00    -0.287 OA
ATOM     21  C   UNL     1       1.185  -0.038  -2.097  0.00  0.00    +0.106 C 
ATOM     22  C   UNL     1       1.194   1.202  -1.539  0.00  0.00    +0.291 C 
ATOM     23  O   UNL     1       1.437   1.347  -0.190  0.00  0.00    -0.461 OA
ENDROOT
BRANCH  17  24
ATOM     24  O   UNL     1       2.469  -3.464  -4.186  0.00  0.00    -0.505 OA
ATOM     25  H   UNL     1       2.517  -4.186  -3.531  0.00  0.00    +0.292 HD
ENDBRANCH  17  24
BRANCH  22  26
ATOM     26  O   UNL     1       1.022   2.367  -2.270  0.00  0.00    -0.480 OA
ATOM     27  H   UNL     1       0.799   2.134  -3.199  0.00  0.00    +0.295 HD
ENDBRANCH  22  26
TORSDOF 2
