REMARK  Name = 
REMARK  2 active torsions:
REMARK  status: ('A' for Active; 'I' for Inactive)
REMARK    1  A    between atoms: C_1  and  C_2
REMARK    2  A    between atoms: C_20  and  O_21
REMARK                            x       y       z     vdW  Elec       q    Type
REMARK                         _______ _______ _______ _____ _____    ______ ____
ROOT
ATOM      1  C   UNL     1      -1.614   0.836  -3.559  0.00  0.00    +0.052 C 
ATOM      2  C   UNL     1      -0.734   1.432  -2.460  0.00  0.00    +0.176 C 
ATOM      3  C   UNL     1       0.737   1.482  -2.947  0.00  0.00    +0.079 C 
ATOM      4  C   UNL     1       1.700   2.202  -2.030  0.00  0.00    +0.155 C 
ATOM      5  O   UNL     1       1.107   2.739  -0.852  0.00  0.00    -0.364 OA
ATOM      6  C   UNL     1       1.978   1.605  -0.684  0.00  0.00    +0.170 C 
ATOM      7  C   UNL     1       3.200   1.732   0.094  0.00  0.00    +0.007 C 
ATOM      8  C   UNL     1       3.356   2.228   1.334  0.00  0.00    -0.002 C 
ATOM      9  C   UNL     1       2.428   2.932   2.196  0.00  0.00    +0.003 C 
ATOM     10  C   UNL     1       1.277   2.628   2.817  0.00  0.00    +0.046 C 
ATOM     11  C   UNL     1       0.361   1.447   2.846  0.00  0.00    +0.160 C 
ATOM     12  O   UNL     1      -0.352   1.290   3.838  0.00  0.00    -0.292 OA
ATOM     13  C   UNL     1       0.266   0.560   1.624  0.00  0.00    +0.116 C 
ATOM     14  C   UNL     1      -0.902  -0.403   1.582  0.00  0.00    -0.001 C 
ATOM     15  C   UNL     1      -0.934  -1.510   2.352  0.00  0.00    +0.088 C 
ATOM     16 CL   UNL     1       0.380  -2.003   3.363  0.00  0.00    -0.080 Cl
ATOM     17  C   UNL     1      -2.151  -2.376   2.382  0.00  0.00    +0.182 C 
ATOM     18  O   UNL     1      -2.127  -3.502   2.882  0.00  0.00    -0.291 OA
ATOM     19  C   UNL     1      -3.441  -1.800   1.831  0.00  0.00    +0.154 C 
ATOM     20  C   UNL     1      -3.215  -0.709   0.827  0.00  0.00    +0.116 C 
ATOM     21  C   UNL     1      -2.017  -0.103   0.667  0.00  0.00    +0.102 C 
ATOM     22  C   UNL     1      -1.931   0.853  -0.482  0.00  0.00    +0.343 C 
ATOM     23  O   UNL     1      -2.811   1.674  -0.711  0.00  0.00    -0.245 OA
ATOM     24  O   UNL     1      -0.855   0.595  -1.277  0.00  0.00    -0.458 OA
ENDROOT
BRANCH  20  25
ATOM     25  O   UNL     1      -4.343  -0.417   0.076  0.00  0.00    -0.510 OA
ATOM     26  H   UNL     1      -4.235   0.456  -0.360  0.00  0.00    +0.292 HD
ENDBRANCH  20  25
TORSDOF 1
