REMARK  Name = 
REMARK  3 active torsions:
REMARK  status: ('A' for Active; 'I' for Inactive)
REMARK    1  A    between atoms: C_1  and  C_2
REMARK    2  A    between atoms: C_17  and  O_18
REMARK    3  A    between atoms: C_23  and  O_24
REMARK                            x       y       z     vdW  Elec       q    Type
REMARK                         _______ _______ _______ _____ _____    ______ ____
ROOT
ATOM      1  C   UNL     1      -1.449   2.859   0.597  0.00  0.00    +0.052 C 
ATOM      2  C   UNL     1      -2.006   1.737  -0.274  0.00  0.00    +0.176 C 
ATOM      3  C   UNL     1      -3.123   0.923   0.395  0.00  0.00    +0.079 C 
ATOM      4  C   UNL     1      -2.803   0.352   1.749  0.00  0.00    +0.155 C 
ATOM      5  O   UNL     1      -3.830  -0.552   2.192  0.00  0.00    -0.364 OA
ATOM      6  C   UNL     1      -2.530  -1.120   1.973  0.00  0.00    +0.170 C 
ATOM      7  C   UNL     1      -1.734  -1.580   3.123  0.00  0.00    +0.007 C 
ATOM      8  C   UNL     1      -0.398  -1.622   3.248  0.00  0.00    -0.002 C 
ATOM      9  C   UNL     1       0.509  -1.136   2.240  0.00  0.00    +0.003 C 
ATOM     10  C   UNL     1       0.735   0.173   2.069  0.00  0.00    +0.046 C 
ATOM     11  C   UNL     1       1.524   0.741   0.944  0.00  0.00    +0.160 C 
ATOM     12  O   UNL     1       1.966   1.884   1.062  0.00  0.00    -0.292 OA
ATOM     13  C   UNL     1       1.735  -0.111  -0.301  0.00  0.00    +0.116 C 
ATOM     14  C   UNL     1       1.912   0.726  -1.552  0.00  0.00    -0.001 C 
ATOM     15  C   UNL     1       3.134   1.115  -1.987  0.00  0.00    +0.087 C 
ATOM     16 CL   UNL     1       4.582   0.818  -1.067  0.00  0.00    -0.079 Cl
ATOM     17  C   UNL     1       3.314   1.763  -3.277  0.00  0.00    +0.139 C 
ATOM     18  C   UNL     1       2.332   1.849  -4.176  0.00  0.00    +0.098 C 
ATOM     19  C   UNL     1       0.984   1.352  -3.842  0.00  0.00    +0.197 C 
ATOM     20  O   UNL     1       0.118   1.287  -4.711  0.00  0.00    -0.287 OA
ATOM     21  C   UNL     1       0.725   0.995  -2.398  0.00  0.00    +0.106 C 
ATOM     22  C   UNL     1      -0.579   0.997  -2.012  0.00  0.00    +0.291 C 
ATOM     23  O   UNL     1      -0.933   0.860  -0.676  0.00  0.00    -0.461 OA
ENDROOT
BRANCH  17  24
ATOM     24  O   UNL     1       4.567   2.252  -3.593  0.00  0.00    -0.505 OA
ATOM     25  H   UNL     1       5.146   2.115  -2.819  0.00  0.00    +0.292 HD
ENDBRANCH  17  24
BRANCH  22  26
ATOM     26  O   UNL     1      -1.630   1.137  -2.908  0.00  0.00    -0.480 OA
ATOM     27  H   UNL     1      -1.275   1.164  -3.824  0.00  0.00    +0.295 HD
ENDBRANCH  22  26
TORSDOF 2
