REMARK  Name = 
REMARK  3 active torsions:
REMARK  status: ('A' for Active; 'I' for Inactive)
REMARK    1  A    between atoms: C_1  and  C_2
REMARK    2  A    between atoms: C_11  and  O_12
REMARK    3  A    between atoms: C_20  and  O_21
REMARK                            x       y       z     vdW  Elec       q    Type
REMARK                         _______ _______ _______ _____ _____    ______ ____
ROOT
ATOM      1  C   UNL     1       0.773   1.667   3.688  0.00  0.00    +0.052 C 
ATOM      2  C   UNL     1       0.478   2.019   2.233  0.00  0.00    +0.176 C 
ATOM      3  C   UNL     1      -0.911   2.652   2.062  0.00  0.00    +0.079 C 
ATOM      4  C   UNL     1      -2.033   1.654   2.112  0.00  0.00    +0.155 C 
ATOM      5  O   UNL     1      -3.323   2.195   2.421  0.00  0.00    -0.364 OA
ATOM      6  C   UNL     1      -3.132   1.731   1.075  0.00  0.00    +0.170 C 
ATOM      7  C   UNL     1      -3.702   0.480   0.570  0.00  0.00    +0.007 C 
ATOM      8  C   UNL     1      -3.210  -0.378  -0.341  0.00  0.00    -0.002 C 
ATOM      9  C   UNL     1      -1.948  -0.349  -1.056  0.00  0.00    +0.003 C 
ATOM     10  C   UNL     1      -1.243   0.738  -1.404  0.00  0.00    +0.045 C 
ATOM     11  C   UNL     1      -0.015   0.761  -2.174  0.00  0.00    +0.117 C 
ATOM     12  C   UNL     1       1.077  -0.004  -2.029  0.00  0.00    +0.055 C 
ATOM     13  C   UNL     1       1.300  -1.108  -1.093  0.00  0.00    +0.017 C 
ATOM     14  C   UNL     1       1.214  -2.377  -1.554  0.00  0.00    +0.092 C 
ATOM     15 CL   UNL     1       0.852  -2.766  -3.210  0.00  0.00    -0.079 Cl
ATOM     16  C   UNL     1       1.414  -3.553  -0.651  0.00  0.00    +0.182 C 
ATOM     17  O   UNL     1       1.305  -4.708  -1.068  0.00  0.00    -0.291 OA
ATOM     18  C   UNL     1       1.758  -3.316   0.805  0.00  0.00    +0.154 C 
ATOM     19  C   UNL     1       1.816  -1.874   1.197  0.00  0.00    +0.116 C 
ATOM     20  C   UNL     1       1.601  -0.875   0.322  0.00  0.00    +0.105 C 
ATOM     21  C   UNL     1       1.706   0.506   0.857  0.00  0.00    +0.343 C 
ATOM     22  O   UNL     1       2.698   1.210   0.770  0.00  0.00    -0.245 OA
ATOM     23  O   UNL     1       0.529   0.812   1.453  0.00  0.00    -0.458 OA
ENDROOT
BRANCH  11  24
ATOM     24  O   UNL     1       0.019   1.750  -3.142  0.00  0.00    -0.507 OA
ATOM     25  H   UNL     1      -0.883   2.087  -3.276  0.00  0.00    +0.292 HD
ENDBRANCH  11  24
BRANCH  19  26
ATOM     26  O   UNL     1       2.108  -1.621   2.528  0.00  0.00    -0.510 OA
ATOM     27  H   UNL     1       2.274  -2.458   2.998  0.00  0.00    +0.292 HD
ENDBRANCH  19  26
TORSDOF 2
