REMARK  Name = 
REMARK  4 active torsions:
REMARK  status: ('A' for Active; 'I' for Inactive)
REMARK    1  A    between atoms: C_1  and  C_2
REMARK    2  A    between atoms: C_11  and  O_12
REMARK    3  A    between atoms: C_17  and  O_18
REMARK    4  A    between atoms: C_23  and  O_24
REMARK                            x       y       z     vdW  Elec       q    Type
REMARK                         _______ _______ _______ _____ _____    ______ ____
ROOT
ATOM      1  C   UNL     1      -1.498  -3.813   1.784  0.00  0.00    +0.052 C 
ATOM      2  C   UNL     1      -1.298  -2.696   0.755  0.00  0.00    +0.176 C 
ATOM      3  C   UNL     1      -2.670  -2.285   0.166  0.00  0.00    +0.079 C 
ATOM      4  C   UNL     1      -2.832  -0.802  -0.098  0.00  0.00    +0.155 C 
ATOM      5  O   UNL     1      -1.613  -0.062  -0.130  0.00  0.00    -0.364 OA
ATOM      6  C   UNL     1      -2.302  -0.225  -1.380  0.00  0.00    +0.170 C 
ATOM      7  C   UNL     1      -2.815   0.970  -2.058  0.00  0.00    +0.007 C 
ATOM      8  C   UNL     1      -2.101   1.714  -2.926  0.00  0.00    -0.002 C 
ATOM      9  C   UNL     1      -0.734   1.394  -3.299  0.00  0.00    +0.003 C 
ATOM     10  C   UNL     1      -0.400   0.238  -3.893  0.00  0.00    +0.045 C 
ATOM     11  C   UNL     1       0.936  -0.262  -4.117  0.00  0.00    +0.117 C 
ATOM     12  C   UNL     1       1.825  -0.602  -3.170  0.00  0.00    +0.055 C 
ATOM     13  C   UNL     1       1.720  -0.435  -1.713  0.00  0.00    +0.018 C 
ATOM     14  C   UNL     1       2.244   0.695  -1.168  0.00  0.00    +0.091 C 
ATOM     15 CL   UNL     1       2.999   1.944  -2.136  0.00  0.00    -0.079 Cl
ATOM     16  C   UNL     1       2.254   0.930   0.269  0.00  0.00    +0.139 C 
ATOM     17  C   UNL     1       1.963  -0.029   1.147  0.00  0.00    +0.098 C 
ATOM     18  C   UNL     1       1.563  -1.361   0.661  0.00  0.00    +0.197 C 
ATOM     19  O   UNL     1       1.617  -2.317   1.429  0.00  0.00    -0.287 OA
ATOM     20  C   UNL     1       1.124  -1.440  -0.779  0.00  0.00    +0.110 C 
ATOM     21  C   UNL     1       0.232  -2.410  -1.106  0.00  0.00    +0.291 C 
ATOM     22  O   UNL     1      -0.410  -3.261  -0.238  0.00  0.00    -0.461 OA
ENDROOT
BRANCH  11  23
ATOM     23  O   UNL     1       1.250  -0.484  -5.443  0.00  0.00    -0.507 OA
ATOM     24  H   UNL     1       0.528  -0.126  -5.987  0.00  0.00    +0.292 HD
ENDBRANCH  11  23
BRANCH  16  25
ATOM     25  O   UNL     1       2.641   2.177   0.727  0.00  0.00    -0.505 OA
ATOM     26  H   UNL     1       2.857   2.725  -0.051  0.00  0.00    +0.292 HD
ENDBRANCH  16  25
BRANCH  21  27
ATOM     27  O   UNL     1      -0.085  -2.664  -2.422  0.00  0.00    -0.480 OA
ATOM     28  H   UNL     1      -0.537  -3.525  -2.382  0.00  0.00    +0.295 HD
ENDBRANCH  21  27
TORSDOF 3
