REMARK  Name = 
REMARK  4 active torsions:
REMARK  status: ('A' for Active; 'I' for Inactive)
REMARK    1  A    between atoms: C_1  and  C_2
REMARK    2  A    between atoms: C_11  and  O_12
REMARK    3  A    between atoms: C_17  and  O_18
REMARK    4  A    between atoms: C_20  and  O_21
REMARK                            x       y       z     vdW  Elec       q    Type
REMARK                         _______ _______ _______ _____ _____    ______ ____
ROOT
ATOM      1  C   UNL     1      -2.679   4.141  -0.244  0.00  0.00    +0.052 C 
ATOM      2  C   UNL     1      -2.104   2.771   0.083  0.00  0.00    +0.176 C 
ATOM      3  C   UNL     1      -1.496   2.741   1.502  0.00  0.00    +0.079 C 
ATOM      4  C   UNL     1      -0.829   1.422   1.751  0.00  0.00    +0.155 C 
ATOM      5  O   UNL     1       0.508   1.409   1.222  0.00  0.00    -0.364 OA
ATOM      6  C   UNL     1       0.383   1.195   2.629  0.00  0.00    +0.170 C 
ATOM      7  C   UNL     1       0.670  -0.129   3.212  0.00  0.00    +0.007 C 
ATOM      8  C   UNL     1       0.828  -1.325   2.614  0.00  0.00    -0.002 C 
ATOM      9  C   UNL     1       0.648  -1.627   1.208  0.00  0.00    +0.003 C 
ATOM     10  C   UNL     1      -0.570  -1.772   0.665  0.00  0.00    +0.045 C 
ATOM     11  C   UNL     1      -0.903  -2.110  -0.698  0.00  0.00    +0.117 C 
ATOM     12  C   UNL     1      -0.439  -1.563  -1.835  0.00  0.00    +0.055 C 
ATOM     13  C   UNL     1       0.581  -0.506  -2.002  0.00  0.00    +0.018 A 
ATOM     14  C   UNL     1       1.901  -0.892  -2.344  0.00  0.00    +0.091 A 
ATOM     15 CL   UNL     1       2.323  -2.572  -2.523  0.00  0.00    -0.079 Cl
ATOM     16  C   UNL     1       2.894   0.073  -2.560  0.00  0.00    +0.139 A 
ATOM     17  C   UNL     1       2.598   1.425  -2.448  0.00  0.00    +0.093 A 
ATOM     18  C   UNL     1       1.306   1.819  -2.109  0.00  0.00    +0.135 A 
ATOM     19  C   UNL     1       0.281   0.876  -1.886  0.00  0.00    +0.109 A 
ATOM     20  C   UNL     1      -1.105   1.323  -1.534  0.00  0.00    +0.344 C 
ATOM     21  O   UNL     1      -2.131   0.708  -1.765  0.00  0.00    -0.245 OA
ATOM     22  O   UNL     1      -1.036   2.504  -0.855  0.00  0.00    -0.458 OA
ENDROOT
BRANCH  11  23
ATOM     23  O   UNL     1      -1.903  -3.064  -0.737  0.00  0.00    -0.507 OA
ATOM     24  H   UNL     1      -2.157  -3.209  -1.663  0.00  0.00    +0.292 HD
ENDBRANCH  11  23
BRANCH  16  25
ATOM     25  O   UNL     1       4.166  -0.310  -2.892  0.00  0.00    -0.505 OA
ATOM     26  H   UNL     1       4.732   0.475  -2.976  0.00  0.00    +0.292 HD
ENDBRANCH  16  25
BRANCH  18  27
ATOM     27  O   UNL     1       1.134   3.178  -2.027  0.00  0.00    -0.506 OA
ATOM     28  H   UNL     1       0.315   3.347  -1.519  0.00  0.00    +0.292 HD
ENDBRANCH  18  27
TORSDOF 3
