REMARK  Name = 
REMARK  3 active torsions:
REMARK  status: ('A' for Active; 'I' for Inactive)
REMARK    1  A    between atoms: C_1  and  C_2
REMARK    2  A    between atoms: C_20  and  O_21
REMARK    3  A    between atoms: C_23  and  O_24
REMARK                            x       y       z     vdW  Elec       q    Type
REMARK                         _______ _______ _______ _____ _____    ______ ____
ROOT
ATOM      1  C   UNL     1      -0.582  -0.362   2.856  0.00  0.00    +0.052 C 
ATOM      2  C   UNL     1      -1.172  -0.245   1.448  0.00  0.00    +0.176 C 
ATOM      3  C   UNL     1      -2.276  -1.291   1.175  0.00  0.00    +0.079 C 
ATOM      4  C   UNL     1      -3.142  -1.020  -0.030  0.00  0.00    +0.155 C 
ATOM      5  O   UNL     1      -2.825   0.162  -0.766  0.00  0.00    -0.364 OA
ATOM      6  C   UNL     1      -2.551  -1.096  -1.411  0.00  0.00    +0.170 C 
ATOM      7  C   UNL     1      -3.316  -1.516  -2.583  0.00  0.00    +0.007 C 
ATOM      8  C   UNL     1      -3.389  -0.880  -3.765  0.00  0.00    -0.002 C 
ATOM      9  C   UNL     1      -2.812   0.407  -4.093  0.00  0.00    +0.003 C 
ATOM     10  C   UNL     1      -1.558   0.855  -3.920  0.00  0.00    +0.046 C 
ATOM     11  C   UNL     1      -0.418   0.077  -3.353  0.00  0.00    +0.160 C 
ATOM     12  O   UNL     1      -0.159  -1.049  -3.775  0.00  0.00    -0.292 OA
ATOM     13  C   UNL     1       0.384   0.779  -2.254  0.00  0.00    +0.116 C 
ATOM     14  C   UNL     1       1.619  -0.024  -1.870  0.00  0.00    -0.001 C 
ATOM     15  C   UNL     1       2.807   0.208  -2.477  0.00  0.00    +0.092 C 
ATOM     16 CL   UNL     1       3.081   1.492  -3.608  0.00  0.00    -0.079 Cl
ATOM     17  C   UNL     1       3.966  -0.718  -2.288  0.00  0.00    +0.201 C 
ATOM     18  O   UNL     1       5.117  -0.446  -2.612  0.00  0.00    -0.286 OA
ATOM     19  C   UNL     1       3.661  -2.059  -1.748  0.00  0.00    +0.098 C 
ATOM     20  C   UNL     1       2.496  -2.274  -1.129  0.00  0.00    +0.135 C 
ATOM     21  C   UNL     1       1.531  -1.173  -0.910  0.00  0.00    +0.101 C 
ATOM     22  C   UNL     1       0.659  -1.227   0.141  0.00  0.00    +0.291 C 
ATOM     23  O   UNL     1      -0.146  -0.153   0.444  0.00  0.00    -0.461 OA
ENDROOT
BRANCH  20  24
ATOM     24  O   UNL     1       2.160  -3.517  -0.623  0.00  0.00    -0.506 OA
ATOM     25  H   UNL     1       2.821  -4.163  -0.936  0.00  0.00    +0.292 HD
ENDBRANCH  20  24
BRANCH  22  26
ATOM     26  O   UNL     1       0.582  -2.326   0.976  0.00  0.00    -0.480 OA
ATOM     27  H   UNL     1       1.124  -3.033   0.572  0.00  0.00    +0.295 HD
ENDBRANCH  22  26
TORSDOF 2
