REMARK  Name = 
REMARK  3 active torsions:
REMARK  status: ('A' for Active; 'I' for Inactive)
REMARK    1  A    between atoms: C_1  and  C_2
REMARK    2  A    between atoms: C_11  and  O_12
REMARK    3  A    between atoms: C_20  and  O_21
REMARK                            x       y       z     vdW  Elec       q    Type
REMARK                         _______ _______ _______ _____ _____    ______ ____
ROOT
ATOM      1  C   UNL     1       1.444   1.490   3.179  0.00  0.00    +0.052 C 
ATOM      2  C   UNL     1       0.730   1.885   1.886  0.00  0.00    +0.176 C 
ATOM      3  C   UNL     1      -0.732   2.281   2.147  0.00  0.00    +0.079 C 
ATOM      4  C   UNL     1      -1.598   1.123   2.557  0.00  0.00    +0.155 C 
ATOM      5  O   UNL     1      -2.683   1.448   3.432  0.00  0.00    -0.364 OA
ATOM      6  C   UNL     1      -3.037   1.072   2.092  0.00  0.00    +0.170 C 
ATOM      7  C   UNL     1      -3.610  -0.234   1.754  0.00  0.00    +0.007 C 
ATOM      8  C   UNL     1      -3.313  -1.050   0.727  0.00  0.00    -0.002 C 
ATOM      9  C   UNL     1      -2.306  -0.879  -0.304  0.00  0.00    +0.003 C 
ATOM     10  C   UNL     1      -1.952   0.284  -0.872  0.00  0.00    +0.045 C 
ATOM     11  C   UNL     1      -0.996   0.497  -1.938  0.00  0.00    +0.117 C 
ATOM     12  C   UNL     1       0.205  -0.068  -2.132  0.00  0.00    +0.055 C 
ATOM     13  C   UNL     1       0.885  -1.130  -1.389  0.00  0.00    +0.017 C 
ATOM     14  C   UNL     1       0.708  -2.414  -1.779  0.00  0.00    +0.092 C 
ATOM     15 CL   UNL     1      -0.331  -2.883  -3.091  0.00  0.00    -0.079 Cl
ATOM     16  C   UNL     1       1.446  -3.535  -1.118  0.00  0.00    +0.182 C 
ATOM     17  O   UNL     1       1.152  -4.711  -1.342  0.00  0.00    -0.291 OA
ATOM     18  C   UNL     1       2.604  -3.201  -0.201  0.00  0.00    +0.154 C 
ATOM     19  C   UNL     1       2.643  -1.766   0.222  0.00  0.00    +0.116 C 
ATOM     20  C   UNL     1       1.812  -0.835  -0.290  0.00  0.00    +0.105 C 
ATOM     21  C   UNL     1       1.898   0.509   0.332  0.00  0.00    +0.343 C 
ATOM     22  O   UNL     1       2.942   1.140   0.419  0.00  0.00    -0.245 OA
ATOM     23  O   UNL     1       0.729   0.786   0.952  0.00  0.00    -0.458 OA
ENDROOT
BRANCH  11  24
ATOM     24  O   UNL     1      -1.378   1.484  -2.833  0.00  0.00    -0.507 OA
ATOM     25  H   UNL     1      -2.338   1.621  -2.752  0.00  0.00    +0.292 HD
ENDBRANCH  11  24
BRANCH  19  26
ATOM     26  O   UNL     1       3.603  -1.508   1.187  0.00  0.00    -0.510 OA
ATOM     27  H   UNL     1       3.799  -0.547   1.220  0.00  0.00    +0.292 HD
ENDBRANCH  19  26
TORSDOF 2
