REMARK  Name = 
REMARK  2 active torsions:
REMARK  status: ('A' for Active; 'I' for Inactive)
REMARK    1  A    between atoms: C_1  and  C_2
REMARK    2  A    between atoms: C_20  and  O_21
REMARK                            x       y       z     vdW  Elec       q    Type
REMARK                         _______ _______ _______ _____ _____    ______ ____
ROOT
ATOM      1  C   UNL     1      -0.588   2.971   0.879  0.00  0.00    +0.052 C 
ATOM      2  C   UNL     1      -1.108   1.540   0.756  0.00  0.00    +0.176 C 
ATOM      3  C   UNL     1      -1.611   1.035   2.117  0.00  0.00    +0.079 C 
ATOM      4  C   UNL     1      -2.471  -0.192   1.993  0.00  0.00    +0.155 C 
ATOM      5  O   UNL     1      -3.649  -0.155   2.804  0.00  0.00    -0.364 OA
ATOM      6  C   UNL     1      -3.859  -0.132   1.381  0.00  0.00    +0.170 C 
ATOM      7  C   UNL     1      -4.451  -1.290   0.691  0.00  0.00    +0.007 C 
ATOM      8  C   UNL     1      -3.946  -2.058  -0.290  0.00  0.00    -0.002 C 
ATOM      9  C   UNL     1      -2.624  -1.902  -0.844  0.00  0.00    +0.003 C 
ATOM     10  C   UNL     1      -2.068  -2.727  -1.739  0.00  0.00    +0.046 C 
ATOM     11  C   UNL     1      -0.643  -2.552  -2.134  0.00  0.00    +0.160 C 
ATOM     12  O   UNL     1      -0.329  -2.698  -3.313  0.00  0.00    -0.292 OA
ATOM     13  C   UNL     1       0.389  -2.344  -1.022  0.00  0.00    +0.116 C 
ATOM     14  C   UNL     1       1.566  -1.496  -1.463  0.00  0.00    -0.001 C 
ATOM     15  C   UNL     1       2.732  -2.033  -1.877  0.00  0.00    +0.088 C 
ATOM     16 CL   UNL     1       3.000  -3.740  -1.998  0.00  0.00    -0.080 Cl
ATOM     17  C   UNL     1       3.896  -1.168  -2.248  0.00  0.00    +0.182 C 
ATOM     18  O   UNL     1       4.965  -1.653  -2.623  0.00  0.00    -0.291 OA
ATOM     19  C   UNL     1       3.757   0.338  -2.134  0.00  0.00    +0.154 C 
ATOM     20  C   UNL     1       2.409   0.806  -1.682  0.00  0.00    +0.116 C 
ATOM     21  C   UNL     1       1.407  -0.041  -1.383  0.00  0.00    +0.102 C 
ATOM     22  C   UNL     1       0.110   0.597  -1.042  0.00  0.00    +0.343 C 
ATOM     23  O   UNL     1      -0.724   0.919  -1.873  0.00  0.00    -0.245 OA
ATOM     24  O   UNL     1      -0.009   0.715   0.309  0.00  0.00    -0.458 OA
ENDROOT
BRANCH  20  25
ATOM     25  O   UNL     1       2.244   2.179  -1.594  0.00  0.00    -0.510 OA
ATOM     26  H   UNL     1       3.026   2.630  -1.960  0.00  0.00    +0.292 HD
ENDBRANCH  20  25
TORSDOF 1
