REMARK  Name = 
REMARK  3 active torsions:
REMARK  status: ('A' for Active; 'I' for Inactive)
REMARK    1  A    between atoms: C_1  and  C_2
REMARK    2  A    between atoms: C_11  and  O_12
REMARK    3  A    between atoms: C_20  and  O_21
REMARK                            x       y       z     vdW  Elec       q    Type
REMARK                         _______ _______ _______ _____ _____    ______ ____
ROOT
ATOM      1  C   UNL     1       0.802   2.828   3.120  0.00  0.00    +0.052 C 
ATOM      2  C   UNL     1       1.210   1.814   2.061  0.00  0.00    +0.176 C 
ATOM      3  C   UNL     1       2.477   2.271   1.303  0.00  0.00    +0.079 C 
ATOM      4  C   UNL     1       2.712   1.422   0.091  0.00  0.00    +0.155 C 
ATOM      5  O   UNL     1       4.043   1.332  -0.414  0.00  0.00    -0.364 OA
ATOM      6  C   UNL     1       3.511   0.139   0.188  0.00  0.00    +0.170 C 
ATOM      7  C   UNL     1       2.904  -0.995  -0.529  0.00  0.00    +0.007 C 
ATOM      8  C   UNL     1       2.021  -1.870  -0.013  0.00  0.00    -0.002 C 
ATOM      9  C   UNL     1       1.671  -1.874   1.386  0.00  0.00    +0.003 C 
ATOM     10  C   UNL     1       0.542  -2.275   1.982  0.00  0.00    +0.045 C 
ATOM     11  C   UNL     1      -0.709  -2.767   1.469  0.00  0.00    +0.117 C 
ATOM     12  C   UNL     1      -1.489  -2.271   0.495  0.00  0.00    +0.055 C 
ATOM     13  C   UNL     1      -1.308  -1.171  -0.464  0.00  0.00    +0.017 C 
ATOM     14  C   UNL     1      -1.308  -1.520  -1.776  0.00  0.00    +0.092 C 
ATOM     15 CL   UNL     1      -1.350  -3.163  -2.348  0.00  0.00    -0.079 Cl
ATOM     16  C   UNL     1      -1.322  -0.485  -2.852  0.00  0.00    +0.182 C 
ATOM     17  O   UNL     1      -1.052  -0.765  -4.019  0.00  0.00    -0.291 OA
ATOM     18  C   UNL     1      -1.773   0.903  -2.472  0.00  0.00    +0.154 C 
ATOM     19  C   UNL     1      -1.449   1.223  -1.046  0.00  0.00    +0.116 C 
ATOM     20  C   UNL     1      -1.208   0.267  -0.114  0.00  0.00    +0.105 C 
ATOM     21  C   UNL     1      -0.760   0.704   1.250  0.00  0.00    +0.343 C 
ATOM     22  O   UNL     1      -1.105   0.231   2.316  0.00  0.00    -0.245 OA
ATOM     23  O   UNL     1       0.159   1.697   1.080  0.00  0.00    -0.458 OA
ENDROOT
BRANCH  11  24
ATOM     24  O   UNL     1      -1.137  -3.846   2.223  0.00  0.00    -0.507 OA
ATOM     25  H   UNL     1      -1.994  -4.157   1.889  0.00  0.00    +0.292 HD
ENDBRANCH  11  24
BRANCH  19  26
ATOM     26  O   UNL     1      -1.387   2.588  -0.820  0.00  0.00    -0.510 OA
ATOM     27  H   UNL     1      -0.928   2.769   0.023  0.00  0.00    +0.292 HD
ENDBRANCH  19  26
TORSDOF 2
