REMARK  Name = 
REMARK  3 active torsions:
REMARK  status: ('A' for Active; 'I' for Inactive)
REMARK    1  A    between atoms: C_1  and  C_2
REMARK    2  A    between atoms: C_17  and  O_18
REMARK    3  A    between atoms: C_20  and  O_21
REMARK                            x       y       z     vdW  Elec       q    Type
REMARK                         _______ _______ _______ _____ _____    ______ ____
ROOT
ATOM      1  C   UNL     1      -3.861  -0.282   1.326  0.00  0.00    +0.052 C 
ATOM      2  C   UNL     1      -2.841  -1.103   0.542  0.00  0.00    +0.176 C 
ATOM      3  C   UNL     1      -1.888  -1.839   1.507  0.00  0.00    +0.079 C 
ATOM      4  C   UNL     1      -1.045  -2.891   0.826  0.00  0.00    +0.155 C 
ATOM      5  O   UNL     1      -0.464  -2.413  -0.378  0.00  0.00    -0.364 OA
ATOM      6  C   UNL     1       0.454  -2.701   0.678  0.00  0.00    +0.170 C 
ATOM      7  C   UNL     1       1.424  -3.753   0.396  0.00  0.00    +0.007 C 
ATOM      8  C   UNL     1       2.671  -3.575  -0.072  0.00  0.00    -0.002 C 
ATOM      9  C   UNL     1       3.369  -2.319  -0.264  0.00  0.00    +0.003 C 
ATOM     10  C   UNL     1       3.011  -1.197  -0.908  0.00  0.00    +0.046 C 
ATOM     11  C   UNL     1       1.754  -0.931  -1.671  0.00  0.00    +0.160 C 
ATOM     12  O   UNL     1       1.498  -1.581  -2.680  0.00  0.00    -0.292 OA
ATOM     13  C   UNL     1       0.894   0.216  -1.151  0.00  0.00    +0.116 C 
ATOM     14  C   UNL     1       0.035   0.900  -2.195  0.00  0.00    -0.001 A 
ATOM     15  C   UNL     1       0.624   1.838  -3.072  0.00  0.00    +0.087 A 
ATOM     16 CL   UNL     1       2.321   2.206  -3.006  0.00  0.00    -0.079 Cl
ATOM     17  C   UNL     1      -0.146   2.517  -4.027  0.00  0.00    +0.139 A 
ATOM     18  C   UNL     1      -1.509   2.290  -4.138  0.00  0.00    +0.093 A 
ATOM     19  C   UNL     1      -2.107   1.354  -3.301  0.00  0.00    +0.135 A 
ATOM     20  C   UNL     1      -1.354   0.642  -2.345  0.00  0.00    +0.105 A 
ATOM     21  C   UNL     1      -2.083  -0.423  -1.609  0.00  0.00    +0.343 C 
ATOM     22  O   UNL     1      -2.629  -1.359  -2.172  0.00  0.00    -0.245 OA
ATOM     23  O   UNL     1      -2.101  -0.159  -0.275  0.00  0.00    -0.458 OA
ENDROOT
BRANCH  17  24
ATOM     24  O   UNL     1       0.398   3.437  -4.883  0.00  0.00    -0.505 OA
ATOM     25  H   UNL     1       1.361   3.449  -4.721  0.00  0.00    +0.292 HD
ENDBRANCH  17  24
BRANCH  19  26
ATOM     26  O   UNL     1      -3.458   1.157  -3.398  0.00  0.00    -0.506 OA
ATOM     27  H   UNL     1      -3.775   1.502  -4.250  0.00  0.00    +0.292 HD
ENDBRANCH  19  26
TORSDOF 2
