REMARK  Name = 
REMARK  3 active torsions:
REMARK  status: ('A' for Active; 'I' for Inactive)
REMARK    1  A    between atoms: C_1  and  C_2
REMARK    2  A    between atoms: C_17  and  O_18
REMARK    3  A    between atoms: C_23  and  O_24
REMARK                            x       y       z     vdW  Elec       q    Type
REMARK                         _______ _______ _______ _____ _____    ______ ____
ROOT
ATOM      1  C   UNL     1       1.298  -2.815   1.577  0.00  0.00    +0.052 C 
ATOM      2  C   UNL     1       0.338  -1.761   1.027  0.00  0.00    +0.176 C 
ATOM      3  C   UNL     1      -1.129  -2.052   1.377  0.00  0.00    +0.079 C 
ATOM      4  C   UNL     1      -2.075  -0.981   0.916  0.00  0.00    +0.155 C 
ATOM      5  O   UNL     1      -3.129  -0.746   1.857  0.00  0.00    -0.364 OA
ATOM      6  C   UNL     1      -2.221   0.348   1.624  0.00  0.00    +0.170 C 
ATOM      7  C   UNL     1      -2.714   1.542   0.926  0.00  0.00    +0.007 C 
ATOM      8  C   UNL     1      -2.062   2.403   0.129  0.00  0.00    -0.002 C 
ATOM      9  C   UNL     1      -0.684   2.315  -0.282  0.00  0.00    +0.003 C 
ATOM     10  C   UNL     1      -0.219   1.343  -1.079  0.00  0.00    +0.046 C 
ATOM     11  C   UNL     1       1.217   1.312  -1.475  0.00  0.00    +0.160 C 
ATOM     12  O   UNL     1       1.981   2.204  -1.098  0.00  0.00    -0.292 OA
ATOM     13  C   UNL     1       1.757   0.141  -2.300  0.00  0.00    +0.116 C 
ATOM     14  C   UNL     1       0.768  -0.655  -3.138  0.00  0.00    -0.001 C 
ATOM     15  C   UNL     1       0.400  -0.251  -4.378  0.00  0.00    +0.087 C 
ATOM     16 CL   UNL     1       0.897   1.295  -5.008  0.00  0.00    -0.079 Cl
ATOM     17  C   UNL     1      -0.403  -1.096  -5.254  0.00  0.00    +0.139 C 
ATOM     18  C   UNL     1      -0.687  -2.368  -4.952  0.00  0.00    +0.098 C 
ATOM     19  C   UNL     1      -0.259  -2.933  -3.658  0.00  0.00    +0.197 C 
ATOM     20  O   UNL     1      -0.418  -4.130  -3.431  0.00  0.00    -0.287 OA
ATOM     21  C   UNL     1       0.299  -1.973  -2.643  0.00  0.00    +0.106 C 
ATOM     22  C   UNL     1       0.262  -2.381  -1.348  0.00  0.00    +0.291 C 
ATOM     23  O   UNL     1       0.597  -1.487  -0.355  0.00  0.00    -0.461 OA
ENDROOT
BRANCH  17  24
ATOM     24  O   UNL     1      -0.815  -0.526  -6.441  0.00  0.00    -0.505 OA
ATOM     25  H   UNL     1      -1.314  -1.175  -6.965  0.00  0.00    +0.292 HD
ENDBRANCH  17  24
BRANCH  22  26
ATOM     26  O   UNL     1      -0.151  -3.641  -0.963  0.00  0.00    -0.480 OA
ATOM     27  H   UNL     1      -0.286  -4.199  -1.760  0.00  0.00    +0.295 HD
ENDBRANCH  22  26
TORSDOF 2
