REMARK  Name = 
REMARK  3 active torsions:
REMARK  status: ('A' for Active; 'I' for Inactive)
REMARK    1  A    between atoms: C_1  and  C_2
REMARK    2  A    between atoms: C_20  and  O_21
REMARK    3  A    between atoms: C_23  and  O_24
REMARK                            x       y       z     vdW  Elec       q    Type
REMARK                         _______ _______ _______ _____ _____    ______ ____
ROOT
ATOM      1  C   UNL     1      -2.408   2.388   1.106  0.00  0.00    +0.052 C 
ATOM      2  C   UNL     1      -1.931   1.207   0.256  0.00  0.00    +0.176 C 
ATOM      3  C   UNL     1      -2.801  -0.045   0.414  0.00  0.00    +0.079 C 
ATOM      4  C   UNL     1      -2.582  -1.097  -0.644  0.00  0.00    +0.155 C 
ATOM      5  O   UNL     1      -3.504  -0.952  -1.737  0.00  0.00    -0.364 OA
ATOM      6  C   UNL     1      -2.112  -0.839  -2.068  0.00  0.00    +0.170 C 
ATOM      7  C   UNL     1      -1.460  -1.894  -2.850  0.00  0.00    +0.007 C 
ATOM      8  C   UNL     1      -0.311  -2.548  -2.627  0.00  0.00    -0.002 C 
ATOM      9  C   UNL     1       0.572  -2.414  -1.496  0.00  0.00    +0.003 C 
ATOM     10  C   UNL     1       1.262  -1.347  -1.066  0.00  0.00    +0.046 C 
ATOM     11  C   UNL     1       1.293   0.024  -1.666  0.00  0.00    +0.160 C 
ATOM     12  O   UNL     1       0.922   0.218  -2.825  0.00  0.00    -0.292 OA
ATOM     13  C   UNL     1       1.822   1.208  -0.835  0.00  0.00    +0.116 C 
ATOM     14  C   UNL     1       2.357   0.912   0.562  0.00  0.00    -0.001 C 
ATOM     15  C   UNL     1       3.687   0.735   0.753  0.00  0.00    +0.092 C 
ATOM     16 CL   UNL     1       4.848   0.742  -0.539  0.00  0.00    -0.079 Cl
ATOM     17  C   UNL     1       4.274   0.483   2.101  0.00  0.00    +0.201 C 
ATOM     18  O   UNL     1       5.462   0.245   2.294  0.00  0.00    -0.286 OA
ATOM     19  C   UNL     1       3.366   0.543   3.257  0.00  0.00    +0.098 C 
ATOM     20  C   UNL     1       2.051   0.698   3.089  0.00  0.00    +0.135 C 
ATOM     21  C   UNL     1       1.423   0.808   1.746  0.00  0.00    +0.101 C 
ATOM     22  C   UNL     1       0.060   0.787   1.620  0.00  0.00    +0.291 C 
ATOM     23  O   UNL     1      -0.535   0.902   0.387  0.00  0.00    -0.461 OA
ENDROOT
BRANCH  20  24
ATOM     24  O   UNL     1       1.208   0.765   4.187  0.00  0.00    -0.506 OA
ATOM     25  H   UNL     1       1.746   0.736   5.001  0.00  0.00    +0.292 HD
ENDBRANCH  20  24
BRANCH  22  26
ATOM     26  O   UNL     1      -0.785   0.603   2.697  0.00  0.00    -0.480 OA
ATOM     27  H   UNL     1      -0.239   0.617   3.507  0.00  0.00    +0.295 HD
ENDBRANCH  22  26
TORSDOF 2
