REMARK  Name = 
REMARK  2 active torsions:
REMARK  status: ('A' for Active; 'I' for Inactive)
REMARK    1  A    between atoms: C_1  and  C_2
REMARK    2  A    between atoms: C_20  and  O_21
REMARK                            x       y       z     vdW  Elec       q    Type
REMARK                         _______ _______ _______ _____ _____    ______ ____
ROOT
ATOM      1  C   UNL     1       1.271   3.446   0.565  0.00  0.00    +0.052 C 
ATOM      2  C   UNL     1       0.016   2.657   0.925  0.00  0.00    +0.176 C 
ATOM      3  C   UNL     1       0.171   1.848   2.223  0.00  0.00    +0.079 C 
ATOM      4  C   UNL     1       1.367   0.942   2.260  0.00  0.00    +0.155 C 
ATOM      5  O   UNL     1       2.310   1.244   3.291  0.00  0.00    -0.364 OA
ATOM      6  C   UNL     1       1.557   0.029   3.453  0.00  0.00    +0.170 C 
ATOM      7  C   UNL     1       2.202  -1.284   3.320  0.00  0.00    +0.007 C 
ATOM      8  C   UNL     1       2.000  -2.251   2.409  0.00  0.00    -0.002 C 
ATOM      9  C   UNL     1       1.102  -2.170   1.283  0.00  0.00    +0.003 C 
ATOM     10  C   UNL     1      -0.218  -1.961   1.379  0.00  0.00    +0.046 C 
ATOM     11  C   UNL     1      -1.080  -1.769   0.181  0.00  0.00    +0.160 C 
ATOM     12  O   UNL     1      -2.273  -2.055   0.257  0.00  0.00    -0.292 OA
ATOM     13  C   UNL     1      -0.441  -1.200  -1.083  0.00  0.00    +0.116 C 
ATOM     14  C   UNL     1      -1.444  -0.512  -1.990  0.00  0.00    -0.001 C 
ATOM     15  C   UNL     1      -1.887  -1.076  -3.134  0.00  0.00    +0.088 C 
ATOM     16 CL   UNL     1      -1.412  -2.656  -3.662  0.00  0.00    -0.080 Cl
ATOM     17  C   UNL     1      -2.818  -0.346  -4.050  0.00  0.00    +0.182 C 
ATOM     18  O   UNL     1      -3.252  -0.871  -5.077  0.00  0.00    -0.291 OA
ATOM     19  C   UNL     1      -3.198   1.083  -3.721  0.00  0.00    +0.154 C 
ATOM     20  C   UNL     1      -2.697   1.567  -2.396  0.00  0.00    +0.116 C 
ATOM     21  C   UNL     1      -1.909   0.824  -1.595  0.00  0.00    +0.102 C 
ATOM     22  C   UNL     1      -1.616   1.422  -0.263  0.00  0.00    +0.343 C 
ATOM     23  O   UNL     1      -2.442   1.538   0.629  0.00  0.00    -0.245 OA
ATOM     24  O   UNL     1      -0.317   1.823  -0.208  0.00  0.00    -0.458 OA
ENDROOT
BRANCH  20  25
ATOM     25  O   UNL     1      -3.099   2.842  -2.033  0.00  0.00    -0.510 OA
ATOM     26  H   UNL     1      -3.791   3.159  -2.641  0.00  0.00    +0.292 HD
ENDBRANCH  20  25
TORSDOF 1
