REMARK  Name = 
REMARK  4 active torsions:
REMARK  status: ('A' for Active; 'I' for Inactive)
REMARK    1  A    between atoms: C_1  and  C_2
REMARK    2  A    between atoms: C_11  and  O_12
REMARK    3  A    between atoms: C_17  and  O_18
REMARK    4  A    between atoms: C_20  and  O_21
REMARK                            x       y       z     vdW  Elec       q    Type
REMARK                         _______ _______ _______ _____ _____    ______ ____
ROOT
ATOM      1  C   UNL     1       1.743  -1.316   2.819  0.00  0.00    +0.052 C 
ATOM      2  C   UNL     1       0.346  -0.967   2.303  0.00  0.00    +0.176 C 
ATOM      3  C   UNL     1      -0.398  -2.213   1.794  0.00  0.00    +0.079 C 
ATOM      4  C   UNL     1       0.195  -2.789   0.537  0.00  0.00    +0.155 C 
ATOM      5  O   UNL     1       0.010  -4.198   0.359  0.00  0.00    -0.364 OA
ATOM      6  C   UNL     1      -0.723  -3.343  -0.532  0.00  0.00    +0.170 C 
ATOM      7  C   UNL     1      -0.345  -3.130  -1.934  0.00  0.00    +0.007 C 
ATOM      8  C   UNL     1      -0.310  -1.973  -2.619  0.00  0.00    -0.002 C 
ATOM      9  C   UNL     1      -0.604  -0.647  -2.108  0.00  0.00    +0.003 C 
ATOM     10  C   UNL     1      -1.666  -0.344  -1.347  0.00  0.00    +0.045 C 
ATOM     11  C   UNL     1      -2.068   0.931  -0.791  0.00  0.00    +0.117 C 
ATOM     12  C   UNL     1      -1.327   2.010  -0.487  0.00  0.00    +0.055 C 
ATOM     13  C   UNL     1       0.111   2.252  -0.708  0.00  0.00    +0.018 A 
ATOM     14  C   UNL     1       0.546   2.898  -1.884  0.00  0.00    +0.091 A 
ATOM     15 CL   UNL     1      -0.564   3.328  -3.150  0.00  0.00    -0.079 Cl
ATOM     16  C   UNL     1       1.897   3.229  -2.057  0.00  0.00    +0.139 A 
ATOM     17  C   UNL     1       2.830   2.963  -1.064  0.00  0.00    +0.093 A 
ATOM     18  C   UNL     1       2.414   2.349   0.111  0.00  0.00    +0.135 A 
ATOM     19  C   UNL     1       1.074   1.959   0.277  0.00  0.00    +0.109 A 
ATOM     20  C   UNL     1       0.741   1.248   1.520  0.00  0.00    +0.344 C 
ATOM     21  O   UNL     1       0.927   1.729   2.624  0.00  0.00    -0.245 OA
ATOM     22  O   UNL     1       0.427  -0.026   1.213  0.00  0.00    -0.458 OA
ENDROOT
BRANCH  11  23
ATOM     23  O   UNL     1      -3.421   0.921  -0.493  0.00  0.00    -0.507 OA
ATOM     24  H   UNL     1      -3.682   1.793  -0.154  0.00  0.00    +0.292 HD
ENDBRANCH  11  23
BRANCH  16  25
ATOM     25  O   UNL     1       2.356   3.846  -3.191  0.00  0.00    -0.505 OA
ATOM     26  H   UNL     1       1.594   3.975  -3.787  0.00  0.00    +0.292 HD
ENDBRANCH  16  25
BRANCH  18  27
ATOM     27  O   UNL     1       3.372   2.166   1.072  0.00  0.00    -0.506 OA
ATOM     28  H   UNL     1       2.943   2.056   1.946  0.00  0.00    +0.292 HD
ENDBRANCH  18  27
TORSDOF 3
