REMARK  Name = 
REMARK  3 active torsions:
REMARK  status: ('A' for Active; 'I' for Inactive)
REMARK    1  A    between atoms: C_1  and  C_2
REMARK    2  A    between atoms: C_20  and  O_21
REMARK    3  A    between atoms: C_23  and  O_24
REMARK                            x       y       z     vdW  Elec       q    Type
REMARK                         _______ _______ _______ _____ _____    ______ ____
ROOT
ATOM      1  C   UNL     1       2.667   1.713  -2.513  0.00  0.00    +0.052 C 
ATOM      2  C   UNL     1       2.115   1.238  -1.168  0.00  0.00    +0.176 C 
ATOM      3  C   UNL     1       3.125   0.291  -0.501  0.00  0.00    +0.079 C 
ATOM      4  C   UNL     1       2.894  -0.012   0.952  0.00  0.00    +0.155 C 
ATOM      5  O   UNL     1       2.743   1.135   1.793  0.00  0.00    -0.364 OA
ATOM      6  C   UNL     1       1.603   0.258   1.698  0.00  0.00    +0.170 C 
ATOM      7  C   UNL     1       1.211  -0.622   2.804  0.00  0.00    +0.007 C 
ATOM      8  C   UNL     1       1.041  -1.954   2.800  0.00  0.00    -0.002 C 
ATOM      9  C   UNL     1       1.276  -2.843   1.687  0.00  0.00    +0.003 C 
ATOM     10  C   UNL     1       0.695  -2.852   0.479  0.00  0.00    +0.046 C 
ATOM     11  C   UNL     1      -0.405  -1.957  -0.003  0.00  0.00    +0.160 C 
ATOM     12  O   UNL     1      -1.183  -1.417   0.778  0.00  0.00    -0.292 OA
ATOM     13  C   UNL     1      -0.525  -1.843  -1.522  0.00  0.00    +0.116 C 
ATOM     14  C   UNL     1      -1.620  -0.878  -1.953  0.00  0.00    -0.001 C 
ATOM     15  C   UNL     1      -2.769  -1.346  -2.500  0.00  0.00    +0.092 C 
ATOM     16 CL   UNL     1      -3.080  -3.026  -2.812  0.00  0.00    -0.079 Cl
ATOM     17  C   UNL     1      -3.902  -0.442  -2.855  0.00  0.00    +0.201 C 
ATOM     18  O   UNL     1      -4.886  -0.801  -3.493  0.00  0.00    -0.286 OA
ATOM     19  C   UNL     1      -3.835   0.945  -2.369  0.00  0.00    +0.098 C 
ATOM     20  C   UNL     1      -2.707   1.422  -1.836  0.00  0.00    +0.135 C 
ATOM     21  C   UNL     1      -1.466   0.608  -1.745  0.00  0.00    +0.101 C 
ATOM     22  C   UNL     1      -0.268   1.215  -1.483  0.00  0.00    +0.291 C 
ATOM     23  O   UNL     1       0.907   0.491  -1.409  0.00  0.00    -0.461 OA
ENDROOT
BRANCH  20  24
ATOM     24  O   UNL     1      -2.650   2.720  -1.354  0.00  0.00    -0.506 OA
ATOM     25  H   UNL     1      -3.546   3.105  -1.388  0.00  0.00    +0.292 HD
ENDBRANCH  20  24
BRANCH  22  26
ATOM     26  O   UNL     1      -0.157   2.584  -1.302  0.00  0.00    -0.480 OA
ATOM     27  H   UNL     1      -1.063   2.944  -1.245  0.00  0.00    +0.295 HD
ENDBRANCH  22  26
TORSDOF 2
