REMARK  Name = 
REMARK  4 active torsions:
REMARK  status: ('A' for Active; 'I' for Inactive)
REMARK    1  A    between atoms: C_1  and  C_2
REMARK    2  A    between atoms: C_11  and  O_12
REMARK    3  A    between atoms: C_17  and  O_18
REMARK    4  A    between atoms: C_20  and  O_21
REMARK                            x       y       z     vdW  Elec       q    Type
REMARK                         _______ _______ _______ _____ _____    ______ ____
ROOT
ATOM      1  C   UNL     1       3.648   1.301  -1.823  0.00  0.00    +0.052 C 
ATOM      2  C   UNL     1       3.015   1.045  -0.455  0.00  0.00    +0.176 C 
ATOM      3  C   UNL     1       3.421  -0.327   0.108  0.00  0.00    +0.079 C 
ATOM      4  C   UNL     1       2.830  -1.481  -0.655  0.00  0.00    +0.155 C 
ATOM      5  O   UNL     1       3.602  -2.687  -0.643  0.00  0.00    -0.364 OA
ATOM      6  C   UNL     1       2.371  -2.711   0.097  0.00  0.00    +0.170 C 
ATOM      7  C   UNL     1       1.160  -3.392  -0.377  0.00  0.00    +0.007 C 
ATOM      8  C   UNL     1      -0.110  -2.951  -0.349  0.00  0.00    -0.002 C 
ATOM      9  C   UNL     1      -0.585  -1.664   0.122  0.00  0.00    +0.003 C 
ATOM     10  C   UNL     1      -0.177  -1.062   1.250  0.00  0.00    +0.045 C 
ATOM     11  C   UNL     1      -0.603   0.198   1.819  0.00  0.00    +0.117 C 
ATOM     12  C   UNL     1      -1.070   1.301   1.210  0.00  0.00    +0.055 C 
ATOM     13  C   UNL     1      -1.370   1.530  -0.216  0.00  0.00    +0.018 A 
ATOM     14  C   UNL     1      -2.679   1.325  -0.707  0.00  0.00    +0.091 A 
ATOM     15 CL   UNL     1      -3.927   0.694   0.327  0.00  0.00    -0.079 Cl
ATOM     16  C   UNL     1      -3.000   1.644  -2.038  0.00  0.00    +0.139 A 
ATOM     17  C   UNL     1      -2.048   2.204  -2.884  0.00  0.00    +0.093 A 
ATOM     18  C   UNL     1      -0.764   2.435  -2.404  0.00  0.00    +0.135 A 
ATOM     19  C   UNL     1      -0.410   2.066  -1.097  0.00  0.00    +0.109 A 
ATOM     20  C   UNL     1       0.991   2.278  -0.708  0.00  0.00    +0.344 C 
ATOM     21  O   UNL     1       1.526   3.373  -0.747  0.00  0.00    -0.245 OA
ATOM     22  O   UNL     1       1.576   1.075  -0.546  0.00  0.00    -0.458 OA
ENDROOT
BRANCH  11  23
ATOM     23  O   UNL     1      -0.395   0.204   3.188  0.00  0.00    -0.507 OA
ATOM     24  H   UNL     1      -0.750   1.027   3.562  0.00  0.00    +0.292 HD
ENDBRANCH  11  23
BRANCH  16  25
ATOM     25  O   UNL     1      -4.268   1.426  -2.506  0.00  0.00    -0.505 OA
ATOM     26  H   UNL     1      -4.325   1.692  -3.439  0.00  0.00    +0.292 HD
ENDBRANCH  16  25
BRANCH  18  27
ATOM     27  O   UNL     1       0.103   3.042  -3.274  0.00  0.00    -0.506 OA
ATOM     28  H   UNL     1       0.838   3.450  -2.771  0.00  0.00    +0.292 HD
ENDBRANCH  18  27
TORSDOF 3
