REMARK  Name = 
REMARK  3 active torsions:
REMARK  status: ('A' for Active; 'I' for Inactive)
REMARK    1  A    between atoms: C_1  and  C_2
REMARK    2  A    between atoms: C_17  and  O_18
REMARK    3  A    between atoms: C_23  and  O_24
REMARK                            x       y       z     vdW  Elec       q    Type
REMARK                         _______ _______ _______ _____ _____    ______ ____
ROOT
ATOM      1  C   UNL     1       1.161   0.290  -2.879  0.00  0.00    +0.052 C 
ATOM      2  C   UNL     1      -0.173   0.513  -2.168  0.00  0.00    +0.176 C 
ATOM      3  C   UNL     1      -0.474   1.999  -1.922  0.00  0.00    +0.079 C 
ATOM      4  C   UNL     1       0.596   2.714  -1.152  0.00  0.00    +0.155 C 
ATOM      5  O   UNL     1       0.107   3.837  -0.408  0.00  0.00    -0.364 OA
ATOM      6  C   UNL     1       0.625   2.733   0.359  0.00  0.00    +0.170 C 
ATOM      7  C   UNL     1       1.926   2.841   1.034  0.00  0.00    +0.007 C 
ATOM      8  C   UNL     1       2.414   2.125   2.059  0.00  0.00    -0.002 C 
ATOM      9  C   UNL     1       1.746   1.044   2.739  0.00  0.00    +0.003 C 
ATOM     10  C   UNL     1       1.521  -0.200   2.288  0.00  0.00    +0.046 C 
ATOM     11  C   UNL     1       1.963  -0.757   0.972  0.00  0.00    +0.160 C 
ATOM     12  O   UNL     1       2.880  -0.234   0.336  0.00  0.00    -0.292 OA
ATOM     13  C   UNL     1       1.335  -2.063   0.468  0.00  0.00    +0.116 C 
ATOM     14  C   UNL     1      -0.044  -2.427   1.008  0.00  0.00    -0.001 C 
ATOM     15  C   UNL     1      -0.193  -3.343   1.999  0.00  0.00    +0.087 C 
ATOM     16 CL   UNL     1       1.187  -4.078   2.778  0.00  0.00    -0.079 Cl
ATOM     17  C   UNL     1      -1.502  -3.756   2.485  0.00  0.00    +0.139 C 
ATOM     18  C   UNL     1      -2.638  -3.316   1.938  0.00  0.00    +0.098 C 
ATOM     19  C   UNL     1      -2.602  -2.353   0.825  0.00  0.00    +0.197 C 
ATOM     20  O   UNL     1      -3.662  -2.010   0.305  0.00  0.00    -0.287 OA
ATOM     21  C   UNL     1      -1.257  -1.816   0.395  0.00  0.00    +0.106 C 
ATOM     22  C   UNL     1      -1.293  -0.803  -0.513  0.00  0.00    +0.291 C 
ATOM     23  O   UNL     1      -0.121  -0.202  -0.925  0.00  0.00    -0.461 OA
ENDROOT
BRANCH  17  24
ATOM     24  O   UNL     1      -1.510  -4.647   3.540  0.00  0.00    -0.505 OA
ATOM     25  H   UNL     1      -2.425  -4.877   3.771  0.00  0.00    +0.292 HD
ENDBRANCH  17  24
BRANCH  22  26
ATOM     26  O   UNL     1      -2.468  -0.287  -1.037  0.00  0.00    -0.480 OA
ATOM     27  H   UNL     1      -3.234  -0.798  -0.696  0.00  0.00    +0.295 HD
ENDBRANCH  22  26
TORSDOF 2
