REMARK  Name = 
REMARK  3 active torsions:
REMARK  status: ('A' for Active; 'I' for Inactive)
REMARK    1  A    between atoms: C_1  and  C_2
REMARK    2  A    between atoms: C_17  and  O_18
REMARK    3  A    between atoms: C_20  and  O_21
REMARK                            x       y       z     vdW  Elec       q    Type
REMARK                         _______ _______ _______ _____ _____    ______ ____
ROOT
ATOM      1  C   UNL     1       0.870   2.937  -1.709  0.00  0.00    +0.052 C 
ATOM      2  C   UNL     1       1.646   2.110  -0.683  0.00  0.00    +0.176 C 
ATOM      3  C   UNL     1       2.672   1.165  -1.332  0.00  0.00    +0.079 C 
ATOM      4  C   UNL     1       2.126   0.318  -2.447  0.00  0.00    +0.155 C 
ATOM      5  O   UNL     1       2.867   0.390  -3.669  0.00  0.00    -0.364 OA
ATOM      6  C   UNL     1       2.932  -0.860  -2.963  0.00  0.00    +0.170 C 
ATOM      7  C   UNL     1       2.248  -2.063  -3.464  0.00  0.00    +0.007 C 
ATOM      8  C   UNL     1       1.241  -2.757  -2.904  0.00  0.00    -0.002 C 
ATOM      9  C   UNL     1       0.578  -2.396  -1.671  0.00  0.00    +0.003 C 
ATOM     10  C   UNL     1       1.226  -2.215  -0.513  0.00  0.00    +0.046 C 
ATOM     11  C   UNL     1       0.599  -1.656   0.713  0.00  0.00    +0.160 C 
ATOM     12  O   UNL     1       1.222  -1.750   1.771  0.00  0.00    -0.292 OA
ATOM     13  C   UNL     1      -0.747  -0.953   0.603  0.00  0.00    +0.116 C 
ATOM     14  C   UNL     1      -1.101  -0.173   1.855  0.00  0.00    -0.001 A 
ATOM     15  C   UNL     1      -1.813  -0.835   2.890  0.00  0.00    +0.087 A 
ATOM     16 CL   UNL     1      -2.281  -2.505   2.762  0.00  0.00    -0.079 Cl
ATOM     17  C   UNL     1      -2.168  -0.167   4.068  0.00  0.00    +0.139 A 
ATOM     18  C   UNL     1      -1.828   1.159   4.254  0.00  0.00    +0.093 A 
ATOM     19  C   UNL     1      -1.109   1.823   3.265  0.00  0.00    +0.135 A 
ATOM     20  C   UNL     1      -0.712   1.181   2.064  0.00  0.00    +0.105 A 
ATOM     21  C   UNL     1       0.100   2.018   1.118  0.00  0.00    +0.343 C 
ATOM     22  O   UNL     1       0.185   3.232   1.273  0.00  0.00    -0.245 OA
ATOM     23  O   UNL     1       0.749   1.329   0.148  0.00  0.00    -0.458 OA
ENDROOT
BRANCH  17  24
ATOM     24  O   UNL     1      -2.859  -0.781   5.077  0.00  0.00    -0.505 OA
ATOM     25  H   UNL     1      -2.974  -1.716   4.826  0.00  0.00    +0.292 HD
ENDBRANCH  17  24
BRANCH  19  26
ATOM     26  O   UNL     1      -0.825   3.134   3.569  0.00  0.00    -0.506 OA
ATOM     27  H   UNL     1      -0.384   3.558   2.800  0.00  0.00    +0.292 HD
ENDBRANCH  19  26
TORSDOF 2
