REMARK  Name = 
REMARK  4 active torsions:
REMARK  status: ('A' for Active; 'I' for Inactive)
REMARK    1  A    between atoms: C_1  and  C_2
REMARK    2  A    between atoms: C_11  and  O_12
REMARK    3  A    between atoms: C_17  and  O_18
REMARK    4  A    between atoms: C_20  and  O_21
REMARK                            x       y       z     vdW  Elec       q    Type
REMARK                         _______ _______ _______ _____ _____    ______ ____
ROOT
ATOM      1  C   UNL     1      -3.050   2.746  -2.062  0.00  0.00    +0.052 C 
ATOM      2  C   UNL     1      -1.610   2.490  -1.626  0.00  0.00    +0.176 C 
ATOM      3  C   UNL     1      -0.695   2.310  -2.860  0.00  0.00    +0.079 C 
ATOM      4  C   UNL     1       0.787   2.326  -2.568  0.00  0.00    +0.155 C 
ATOM      5  O   UNL     1       1.105   2.744  -1.245  0.00  0.00    -0.364 OA
ATOM      6  C   UNL     1       1.402   1.371  -1.578  0.00  0.00    +0.170 C 
ATOM      7  C   UNL     1       2.808   0.946  -1.569  0.00  0.00    +0.007 C 
ATOM      8  C   UNL     1       3.566   0.860  -0.457  0.00  0.00    -0.002 C 
ATOM      9  C   UNL     1       3.068   1.231   0.857  0.00  0.00    +0.003 C 
ATOM     10  C   UNL     1       1.969   0.686   1.407  0.00  0.00    +0.045 C 
ATOM     11  C   UNL     1       1.252   1.218   2.550  0.00  0.00    +0.117 C 
ATOM     12  C   UNL     1       0.012   0.846   2.916  0.00  0.00    +0.055 C 
ATOM     13  C   UNL     1      -0.801  -0.211   2.274  0.00  0.00    +0.018 A 
ATOM     14  C   UNL     1      -0.798  -1.505   2.841  0.00  0.00    +0.091 A 
ATOM     15 CL   UNL     1       0.082  -1.864   4.296  0.00  0.00    -0.079 Cl
ATOM     16  C   UNL     1      -1.514  -2.547   2.240  0.00  0.00    +0.139 A 
ATOM     17  C   UNL     1      -2.236  -2.333   1.076  0.00  0.00    +0.093 A 
ATOM     18  C   UNL     1      -2.250  -1.065   0.503  0.00  0.00    +0.135 A 
ATOM     19  C   UNL     1      -1.550   0.009   1.091  0.00  0.00    +0.109 A 
ATOM     20  C   UNL     1      -1.651   1.372   0.498  0.00  0.00    +0.344 C 
ATOM     21  O   UNL     1      -1.781   2.398   1.139  0.00  0.00    -0.245 OA
ATOM     22  O   UNL     1      -1.603   1.260  -0.860  0.00  0.00    -0.458 OA
ENDROOT
BRANCH  11  23
ATOM     23  O   UNL     1       1.932   2.203   3.236  0.00  0.00    -0.507 OA
ATOM     24  H   UNL     1       1.332   2.594   3.893  0.00  0.00    +0.292 HD
ENDBRANCH  11  23
BRANCH  16  25
ATOM     25  O   UNL     1      -1.533  -3.813   2.760  0.00  0.00    -0.505 OA
ATOM     26  H   UNL     1      -0.981  -3.810   3.565  0.00  0.00    +0.292 HD
ENDBRANCH  16  25
BRANCH  18  27
ATOM     27  O   UNL     1      -2.993  -0.959  -0.644  0.00  0.00    -0.506 OA
ATOM     28  H   UNL     1      -2.763  -0.123  -1.094  0.00  0.00    +0.292 HD
ENDBRANCH  18  27
TORSDOF 3
