REMARK  Name = 
REMARK  4 active torsions:
REMARK  status: ('A' for Active; 'I' for Inactive)
REMARK    1  A    between atoms: C_1  and  C_2
REMARK    2  A    between atoms: C_11  and  O_12
REMARK    3  A    between atoms: C_20  and  O_21
REMARK    4  A    between atoms: C_23  and  O_24
REMARK                            x       y       z     vdW  Elec       q    Type
REMARK                         _______ _______ _______ _____ _____    ______ ____
ROOT
ATOM      1  C   UNL     1       2.899   0.619   1.815  0.00  0.00    +0.052 C 
ATOM      2  C   UNL     1       1.737  -0.316   2.147  0.00  0.00    +0.176 C 
ATOM      3  C   UNL     1       2.047  -1.788   1.826  0.00  0.00    +0.079 C 
ATOM      4  C   UNL     1       2.542  -2.060   0.432  0.00  0.00    +0.155 C 
ATOM      5  O   UNL     1       2.397  -3.445   0.081  0.00  0.00    -0.364 OA
ATOM      6  C   UNL     1       1.641  -2.504  -0.701  0.00  0.00    +0.170 C 
ATOM      7  C   UNL     1       2.023  -2.267  -2.102  0.00  0.00    +0.007 C 
ATOM      8  C   UNL     1       2.102  -1.111  -2.780  0.00  0.00    -0.002 C 
ATOM      9  C   UNL     1       1.829   0.202  -2.249  0.00  0.00    +0.003 C 
ATOM     10  C   UNL     1       0.687   0.535  -1.630  0.00  0.00    +0.045 C 
ATOM     11  C   UNL     1       0.422   1.814  -1.002  0.00  0.00    +0.117 C 
ATOM     12  C   UNL     1      -0.642   2.070  -0.219  0.00  0.00    +0.055 C 
ATOM     13  C   UNL     1      -1.755   1.161   0.094  0.00  0.00    +0.018 C 
ATOM     14  C   UNL     1      -2.831   1.172  -0.731  0.00  0.00    +0.096 C 
ATOM     15 CL   UNL     1      -2.934   2.149  -2.167  0.00  0.00    -0.079 Cl
ATOM     16  C   UNL     1      -4.063   0.387  -0.424  0.00  0.00    +0.201 C 
ATOM     17  O   UNL     1      -4.992   0.238  -1.211  0.00  0.00    -0.286 OA
ATOM     18  C   UNL     1      -4.182  -0.178   0.934  0.00  0.00    +0.098 C 
ATOM     19  C   UNL     1      -3.120  -0.211   1.745  0.00  0.00    +0.135 C 
ATOM     20  C   UNL     1      -1.791   0.257   1.297  0.00  0.00    +0.105 C 
ATOM     21  C   UNL     1      -0.655  -0.161   1.933  0.00  0.00    +0.291 C 
ATOM     22  O   UNL     1       0.591   0.163   1.434  0.00  0.00    -0.461 OA
ENDROOT
BRANCH  11  23
ATOM     23  O   UNL     1       1.391   2.773  -1.230  0.00  0.00    -0.507 OA
ATOM     24  H   UNL     1       1.146   3.583  -0.753  0.00  0.00    +0.292 HD
ENDBRANCH  11  23
BRANCH  19  25
ATOM     25  O   UNL     1      -3.211  -0.719   3.029  0.00  0.00    -0.506 OA
ATOM     26  H   UNL     1      -4.140  -0.959   3.206  0.00  0.00    +0.292 HD
ENDBRANCH  19  25
BRANCH  21  27
ATOM     27  O   UNL     1      -0.689  -0.962   3.062  0.00  0.00    -0.480 OA
ATOM     28  H   UNL     1      -1.624  -1.038   3.336  0.00  0.00    +0.295 HD
ENDBRANCH  21  27
TORSDOF 3
