REMARK  Name = 
REMARK  3 active torsions:
REMARK  status: ('A' for Active; 'I' for Inactive)
REMARK    1  A    between atoms: C_1  and  C_2
REMARK    2  A    between atoms: C_20  and  O_21
REMARK    3  A    between atoms: C_23  and  O_24
REMARK                            x       y       z     vdW  Elec       q    Type
REMARK                         _______ _______ _______ _____ _____    ______ ____
ROOT
ATOM      1  C   UNL     1      -2.100  -0.044  -2.526  0.00  0.00    +0.052 C 
ATOM      2  C   UNL     1      -0.747   0.301  -1.899  0.00  0.00    +0.176 C 
ATOM      3  C   UNL     1       0.416  -0.520  -2.503  0.00  0.00    +0.079 C 
ATOM      4  C   UNL     1       1.800   0.003  -2.206  0.00  0.00    +0.155 C 
ATOM      5  O   UNL     1       1.857   1.180  -1.400  0.00  0.00    -0.364 OA
ATOM      6  C   UNL     1       2.331  -0.039  -0.799  0.00  0.00    +0.170 C 
ATOM      7  C   UNL     1       3.748  -0.216  -0.487  0.00  0.00    +0.007 C 
ATOM      8  C   UNL     1       4.486   0.532   0.351  0.00  0.00    -0.002 C 
ATOM      9  C   UNL     1       4.061   1.732   1.042  0.00  0.00    +0.003 C 
ATOM     10  C   UNL     1       2.971   1.950   1.793  0.00  0.00    +0.046 C 
ATOM     11  C   UNL     1       1.919   0.946   2.126  0.00  0.00    +0.160 C 
ATOM     12  O   UNL     1       2.228  -0.162   2.560  0.00  0.00    -0.292 OA
ATOM     13  C   UNL     1       0.473   1.400   1.906  0.00  0.00    +0.116 C 
ATOM     14  C   UNL     1      -0.517   0.373   2.436  0.00  0.00    -0.001 C 
ATOM     15  C   UNL     1      -0.993   0.463   3.700  0.00  0.00    +0.092 C 
ATOM     16 CL   UNL     1      -0.656   1.785   4.768  0.00  0.00    -0.079 Cl
ATOM     17  C   UNL     1      -1.774  -0.654   4.314  0.00  0.00    +0.201 C 
ATOM     18  O   UNL     1      -2.422  -0.546   5.349  0.00  0.00    -0.286 OA
ATOM     19  C   UNL     1      -1.678  -1.972   3.654  0.00  0.00    +0.098 C 
ATOM     20  C   UNL     1      -1.230  -2.050   2.396  0.00  0.00    +0.135 C 
ATOM     21  C   UNL     1      -0.895  -0.832   1.625  0.00  0.00    +0.101 C 
ATOM     22  C   UNL     1      -0.980  -0.840   0.261  0.00  0.00    +0.291 C 
ATOM     23  O   UNL     1      -0.811   0.317  -0.462  0.00  0.00    -0.461 OA
ENDROOT
BRANCH  20  24
ATOM     24  O   UNL     1      -1.107  -3.264   1.742  0.00  0.00    -0.506 OA
ATOM     25  H   UNL     1      -1.245  -3.977   2.394  0.00  0.00    +0.292 HD
ENDBRANCH  20  24
BRANCH  22  26
ATOM     26  O   UNL     1      -1.290  -1.986  -0.448  0.00  0.00    -0.480 OA
ATOM     27  H   UNL     1      -1.271  -2.731   0.186  0.00  0.00    +0.295 HD
ENDBRANCH  22  26
TORSDOF 2
