REMARK  Name = 
REMARK  3 active torsions:
REMARK  status: ('A' for Active; 'I' for Inactive)
REMARK    1  A    between atoms: C_1  and  C_2
REMARK    2  A    between atoms: C_11  and  O_12
REMARK    3  A    between atoms: C_20  and  O_21
REMARK                            x       y       z     vdW  Elec       q    Type
REMARK                         _______ _______ _______ _____ _____    ______ ____
ROOT
ATOM      1  C   UNL     1      -0.100  -0.799  -3.458  0.00  0.00    +0.052 C 
ATOM      2  C   UNL     1      -0.633  -0.065  -2.224  0.00  0.00    +0.176 C 
ATOM      3  C   UNL     1      -0.231   1.415  -2.336  0.00  0.00    +0.079 C 
ATOM      4  C   UNL     1      -0.585   2.336  -1.208  0.00  0.00    +0.155 C 
ATOM      5  O   UNL     1      -1.978   2.513  -0.945  0.00  0.00    -0.364 OA
ATOM      6  C   UNL     1      -1.204   1.916   0.113  0.00  0.00    +0.170 C 
ATOM      7  C   UNL     1      -0.747   2.644   1.308  0.00  0.00    +0.007 C 
ATOM      8  C   UNL     1       0.294   2.342   2.105  0.00  0.00    -0.002 C 
ATOM      9  C   UNL     1       1.171   1.199   1.950  0.00  0.00    +0.003 C 
ATOM     10  C   UNL     1       1.857   0.928   0.829  0.00  0.00    +0.045 C 
ATOM     11  C   UNL     1       2.660  -0.244   0.546  0.00  0.00    +0.117 C 
ATOM     12  C   UNL     1       2.324  -1.528   0.772  0.00  0.00    +0.055 C 
ATOM     13  C   UNL     1       1.119  -2.004   1.464  0.00  0.00    +0.017 C 
ATOM     14  C   UNL     1       1.248  -2.419   2.746  0.00  0.00    +0.092 C 
ATOM     15 CL   UNL     1       2.772  -2.497   3.579  0.00  0.00    -0.079 Cl
ATOM     16  C   UNL     1       0.056  -2.802   3.562  0.00  0.00    +0.182 C 
ATOM     17  O   UNL     1       0.178  -3.321   4.673  0.00  0.00    -0.291 OA
ATOM     18  C   UNL     1      -1.322  -2.482   3.026  0.00  0.00    +0.154 C 
ATOM     19  C   UNL     1      -1.338  -2.185   1.560  0.00  0.00    +0.116 C 
ATOM     20  C   UNL     1      -0.213  -1.997   0.842  0.00  0.00    +0.105 C 
ATOM     21  C   UNL     1      -0.412  -1.840  -0.628  0.00  0.00    +0.343 C 
ATOM     22  O   UNL     1      -0.896  -2.708  -1.338  0.00  0.00    -0.245 OA
ATOM     23  O   UNL     1      -0.059  -0.590  -1.009  0.00  0.00    -0.458 OA
ENDROOT
BRANCH  11  24
ATOM     24  O   UNL     1       3.819   0.086  -0.124  0.00  0.00    -0.507 OA
ATOM     25  H   UNL     1       4.333  -0.722  -0.289  0.00  0.00    +0.292 HD
ENDBRANCH  11  24
BRANCH  19  26
ATOM     26  O   UNL     1      -2.592  -2.106   0.978  0.00  0.00    -0.510 OA
ATOM     27  H   UNL     1      -3.280  -2.369   1.617  0.00  0.00    +0.292 HD
ENDBRANCH  19  26
TORSDOF 2
