REMARK  Name = 
REMARK  4 active torsions:
REMARK  status: ('A' for Active; 'I' for Inactive)
REMARK    1  A    between atoms: C_1  and  C_2
REMARK    2  A    between atoms: C_11  and  O_12
REMARK    3  A    between atoms: C_17  and  O_18
REMARK    4  A    between atoms: C_23  and  O_24
REMARK                            x       y       z     vdW  Elec       q    Type
REMARK                         _______ _______ _______ _____ _____    ______ ____
ROOT
ATOM      1  C   UNL     1      -3.062  -0.470   2.541  0.00  0.00    +0.052 C 
ATOM      2  C   UNL     1      -1.946   0.131   1.686  0.00  0.00    +0.176 C 
ATOM      3  C   UNL     1      -2.477   1.216   0.733  0.00  0.00    +0.079 C 
ATOM      4  C   UNL     1      -1.423   1.865  -0.118  0.00  0.00    +0.155 C 
ATOM      5  O   UNL     1      -1.687   3.260  -0.318  0.00  0.00    -0.364 OA
ATOM      6  C   UNL     1      -0.478   2.930   0.389  0.00  0.00    +0.170 C 
ATOM      7  C   UNL     1       0.811   3.194  -0.264  0.00  0.00    +0.007 C 
ATOM      8  C   UNL     1       1.855   2.381  -0.492  0.00  0.00    -0.002 C 
ATOM      9  C   UNL     1       1.970   0.982  -0.154  0.00  0.00    +0.003 C 
ATOM     10  C   UNL     1       1.684   0.469   1.050  0.00  0.00    +0.045 C 
ATOM     11  C   UNL     1       1.812  -0.912   1.457  0.00  0.00    +0.117 C 
ATOM     12  C   UNL     1       1.446  -2.013   0.775  0.00  0.00    +0.055 C 
ATOM     13  C   UNL     1       0.894  -2.118  -0.585  0.00  0.00    +0.018 C 
ATOM     14  C   UNL     1       1.748  -2.426  -1.598  0.00  0.00    +0.091 C 
ATOM     15 CL   UNL     1       3.467  -2.623  -1.319  0.00  0.00    -0.079 Cl
ATOM     16  C   UNL     1       1.286  -2.658  -2.961  0.00  0.00    +0.139 C 
ATOM     17  C   UNL     1      -0.011  -2.733  -3.270  0.00  0.00    +0.098 C 
ATOM     18  C   UNL     1      -1.030  -2.517  -2.228  0.00  0.00    +0.197 C 
ATOM     19  O   UNL     1      -2.214  -2.709  -2.498  0.00  0.00    -0.287 OA
ATOM     20  C   UNL     1      -0.561  -2.022  -0.888  0.00  0.00    +0.110 C 
ATOM     21  C   UNL     1      -1.518  -1.500  -0.077  0.00  0.00    +0.291 C 
ATOM     22  O   UNL     1      -1.155  -0.918   1.113  0.00  0.00    -0.461 OA
ENDROOT
BRANCH  11  23
ATOM     23  O   UNL     1       2.290  -1.006   2.751  0.00  0.00    -0.507 OA
ATOM     24  H   UNL     1       2.343  -1.943   2.998  0.00  0.00    +0.292 HD
ENDBRANCH  11  23
BRANCH  16  25
ATOM     25  O   UNL     1       2.266  -2.833  -3.918  0.00  0.00    -0.505 OA
ATOM     26  H   UNL     1       1.856  -2.989  -4.786  0.00  0.00    +0.292 HD
ENDBRANCH  16  25
BRANCH  21  27
ATOM     27  O   UNL     1      -2.867  -1.511  -0.383  0.00  0.00    -0.480 OA
ATOM     28  H   UNL     1      -3.006  -2.008  -1.219  0.00  0.00    +0.295 HD
ENDBRANCH  21  27
TORSDOF 3
