REMARK  Name = 
REMARK  2 active torsions:
REMARK  status: ('A' for Active; 'I' for Inactive)
REMARK    1  A    between atoms: C_1  and  C_2
REMARK    2  A    between atoms: C_20  and  O_21
REMARK                            x       y       z     vdW  Elec       q    Type
REMARK                         _______ _______ _______ _____ _____    ______ ____
ROOT
ATOM      1  C   UNL     1      -1.624   3.033   0.702  0.00  0.00    +0.052 C 
ATOM      2  C   UNL     1      -1.387   1.822   1.600  0.00  0.00    +0.176 C 
ATOM      3  C   UNL     1      -0.251   2.046   2.613  0.00  0.00    +0.079 C 
ATOM      4  C   UNL     1       1.113   2.359   2.048  0.00  0.00    +0.155 C 
ATOM      5  O   UNL     1       1.901   1.163   1.915  0.00  0.00    -0.364 OA
ATOM      6  C   UNL     1       1.613   1.875   0.709  0.00  0.00    +0.170 C 
ATOM      7  C   UNL     1       2.677   2.533  -0.043  0.00  0.00    +0.007 C 
ATOM      8  C   UNL     1       3.699   1.932  -0.676  0.00  0.00    -0.002 C 
ATOM      9  C   UNL     1       4.054   0.527  -0.653  0.00  0.00    +0.003 C 
ATOM     10  C   UNL     1       3.301  -0.578  -0.775  0.00  0.00    +0.046 C 
ATOM     11  C   UNL     1       1.826  -0.646  -0.987  0.00  0.00    +0.160 C 
ATOM     12  O   UNL     1       1.282   0.007  -1.874  0.00  0.00    -0.292 OA
ATOM     13  C   UNL     1       1.055  -1.558  -0.024  0.00  0.00    +0.116 C 
ATOM     14  C   UNL     1      -0.302  -1.993  -0.552  0.00  0.00    -0.001 C 
ATOM     15  C   UNL     1      -0.399  -2.854  -1.590  0.00  0.00    +0.088 C 
ATOM     16 CL   UNL     1       0.985  -3.480  -2.428  0.00  0.00    -0.080 Cl
ATOM     17  C   UNL     1      -1.721  -3.378  -2.051  0.00  0.00    +0.182 C 
ATOM     18  O   UNL     1      -1.812  -4.091  -3.053  0.00  0.00    -0.291 OA
ATOM     19  C   UNL     1      -2.954  -3.057  -1.234  0.00  0.00    +0.154 C 
ATOM     20  C   UNL     1      -2.722  -2.090  -0.115  0.00  0.00    +0.116 C 
ATOM     21  C   UNL     1      -1.512  -1.557   0.161  0.00  0.00    +0.102 C 
ATOM     22  C   UNL     1      -1.523  -0.532   1.242  0.00  0.00    +0.343 C 
ATOM     23  O   UNL     1      -1.976  -0.753   2.357  0.00  0.00    -0.245 OA
ATOM     24  O   UNL     1      -1.153   0.673   0.752  0.00  0.00    -0.458 OA
ENDROOT
BRANCH  20  25
ATOM     25  O   UNL     1      -3.879  -1.806   0.595  0.00  0.00    -0.510 OA
ATOM     26  H   UNL     1      -3.654  -1.441   1.477  0.00  0.00    +0.292 HD
ENDBRANCH  20  25
TORSDOF 1
