REMARK  Name = 
REMARK  4 active torsions:
REMARK  status: ('A' for Active; 'I' for Inactive)
REMARK    1  A    between atoms: C_1  and  C_2
REMARK    2  A    between atoms: C_11  and  O_12
REMARK    3  A    between atoms: C_17  and  O_18
REMARK    4  A    between atoms: C_23  and  O_24
REMARK                            x       y       z     vdW  Elec       q    Type
REMARK                         _______ _______ _______ _____ _____    ______ ____
ROOT
ATOM      1  C   UNL     1      -1.703  -1.779  -2.399  0.00  0.00    +0.052 C 
ATOM      2  C   UNL     1      -1.167  -0.635  -1.537  0.00  0.00    +0.176 C 
ATOM      3  C   UNL     1      -0.139   0.237  -2.297  0.00  0.00    +0.079 C 
ATOM      4  C   UNL     1       0.403   1.352  -1.460  0.00  0.00    +0.155 C 
ATOM      5  O   UNL     1       0.617   2.609  -2.108  0.00  0.00    -0.364 OA
ATOM      6  C   UNL     1      -0.433   2.572  -1.127  0.00  0.00    +0.170 C 
ATOM      7  C   UNL     1      -0.303   3.030   0.266  0.00  0.00    +0.007 C 
ATOM      8  C   UNL     1      -0.992   2.545   1.315  0.00  0.00    -0.002 C 
ATOM      9  C   UNL     1      -2.052   1.585   1.147  0.00  0.00    +0.003 C 
ATOM     10  C   UNL     1      -2.259   0.443   1.813  0.00  0.00    +0.045 C 
ATOM     11  C   UNL     1      -1.513  -0.183   2.874  0.00  0.00    +0.117 C 
ATOM     12  C   UNL     1      -0.218  -0.519   2.937  0.00  0.00    +0.055 C 
ATOM     13  C   UNL     1       0.935  -0.311   2.054  0.00  0.00    +0.018 C 
ATOM     14  C   UNL     1       1.895   0.557   2.473  0.00  0.00    +0.091 C 
ATOM     15 CL   UNL     1       1.669   1.628   3.837  0.00  0.00    -0.079 Cl
ATOM     16  C   UNL     1       3.232   0.567   1.887  0.00  0.00    +0.139 C 
ATOM     17  C   UNL     1       3.679  -0.436   1.126  0.00  0.00    +0.098 C 
ATOM     18  C   UNL     1       2.747  -1.514   0.742  0.00  0.00    +0.197 C 
ATOM     19  O   UNL     1       3.150  -2.547   0.215  0.00  0.00    -0.287 OA
ATOM     20  C   UNL     1       1.290  -1.200   0.923  0.00  0.00    +0.110 C 
ATOM     21  C   UNL     1       0.500  -1.612  -0.098  0.00  0.00    +0.291 C 
ATOM     22  O   UNL     1      -0.775  -1.113  -0.233  0.00  0.00    -0.461 OA
ENDROOT
BRANCH  11  23
ATOM     23  O   UNL     1      -2.306  -0.542   3.956  0.00  0.00    -0.507 OA
ATOM     24  H   UNL     1      -3.178  -0.123   3.851  0.00  0.00    +0.292 HD
ENDBRANCH  11  23
BRANCH  16  25
ATOM     25  O   UNL     1       4.087   1.599   2.223  0.00  0.00    -0.505 OA
ATOM     26  H   UNL     1       3.621   2.184   2.850  0.00  0.00    +0.292 HD
ENDBRANCH  16  25
BRANCH  21  27
ATOM     27  O   UNL     1       0.939  -2.464  -1.098  0.00  0.00    -0.480 OA
ATOM     28  H   UNL     1       1.798  -2.858  -0.828  0.00  0.00    +0.295 HD
ENDBRANCH  21  27
TORSDOF 3
