REMARK  Name = 
REMARK  3 active torsions:
REMARK  status: ('A' for Active; 'I' for Inactive)
REMARK    1  A    between atoms: C_1  and  C_2
REMARK    2  A    between atoms: C_11  and  O_12
REMARK    3  A    between atoms: C_20  and  O_21
REMARK                            x       y       z     vdW  Elec       q    Type
REMARK                         _______ _______ _______ _____ _____    ______ ____
ROOT
ATOM      1  C   UNL     1       0.362   0.695  -3.079  0.00  0.00    +0.052 C 
ATOM      2  C   UNL     1      -0.053   1.504  -1.856  0.00  0.00    +0.176 C 
ATOM      3  C   UNL     1       1.153   2.003  -1.034  0.00  0.00    +0.079 C 
ATOM      4  C   UNL     1       1.836   0.897  -0.276  0.00  0.00    +0.155 C 
ATOM      5  O   UNL     1       2.574   1.294   0.884  0.00  0.00    -0.364 OA
ATOM      6  C   UNL     1       1.357   0.561   1.119  0.00  0.00    +0.170 C 
ATOM      7  C   UNL     1       1.323  -0.816   1.633  0.00  0.00    +0.007 C 
ATOM      8  C   UNL     1       1.004  -1.970   1.021  0.00  0.00    -0.002 C 
ATOM      9  C   UNL     1       0.782  -2.119  -0.390  0.00  0.00    +0.003 C 
ATOM     10  C   UNL     1      -0.344  -2.316  -1.088  0.00  0.00    +0.045 C 
ATOM     11  C   UNL     1      -1.733  -2.486  -0.733  0.00  0.00    +0.117 C 
ATOM     12  C   UNL     1      -2.515  -1.831   0.135  0.00  0.00    +0.055 C 
ATOM     13  C   UNL     1      -2.237  -0.814   1.144  0.00  0.00    +0.017 C 
ATOM     14  C   UNL     1      -2.075  -1.231   2.423  0.00  0.00    +0.092 C 
ATOM     15 CL   UNL     1      -2.062  -2.900   2.908  0.00  0.00    -0.079 Cl
ATOM     16  C   UNL     1      -1.957  -0.246   3.539  0.00  0.00    +0.182 C 
ATOM     17  O   UNL     1      -1.528  -0.576   4.645  0.00  0.00    -0.291 OA
ATOM     18  C   UNL     1      -2.458   1.161   3.293  0.00  0.00    +0.154 C 
ATOM     19  C   UNL     1      -2.404   1.541   1.845  0.00  0.00    +0.116 C 
ATOM     20  C   UNL     1      -2.248   0.630   0.858  0.00  0.00    +0.105 C 
ATOM     21  C   UNL     1      -1.991   1.208  -0.491  0.00  0.00    +0.343 C 
ATOM     22  O   UNL     1      -2.581   2.193  -0.916  0.00  0.00    -0.245 OA
ATOM     23  O   UNL     1      -0.863   0.671  -1.003  0.00  0.00    -0.458 OA
ENDROOT
BRANCH  11  24
ATOM     24  O   UNL     1      -2.366  -3.450  -1.510  0.00  0.00    -0.507 OA
ATOM     25  H   UNL     1      -1.689  -4.045  -1.877  0.00  0.00    +0.292 HD
ENDBRANCH  11  24
BRANCH  19  26
ATOM     26  O   UNL     1      -2.479   2.910   1.644  0.00  0.00    -0.510 OA
ATOM     27  H   UNL     1      -2.653   3.101   0.695  0.00  0.00    +0.292 HD
ENDBRANCH  19  26
TORSDOF 2
