REMARK  Name = 
REMARK  4 active torsions:
REMARK  status: ('A' for Active; 'I' for Inactive)
REMARK    1  A    between atoms: C_1  and  C_2
REMARK    2  A    between atoms: C_11  and  O_12
REMARK    3  A    between atoms: C_20  and  O_21
REMARK    4  A    between atoms: C_23  and  O_24
REMARK                            x       y       z     vdW  Elec       q    Type
REMARK                         _______ _______ _______ _____ _____    ______ ____
ROOT
ATOM      1  C   UNL     1       1.546  -0.927   1.513  0.00  0.00    +0.052 C 
ATOM      2  C   UNL     1       1.824  -0.345   0.129  0.00  0.00    +0.176 C 
ATOM      3  C   UNL     1       2.791   0.849   0.144  0.00  0.00    +0.079 C 
ATOM      4  C   UNL     1       2.548   1.891   1.198  0.00  0.00    +0.155 C 
ATOM      5  O   UNL     1       3.368   3.052   0.980  0.00  0.00    -0.364 OA
ATOM      6  C   UNL     1       1.945   3.239   0.892  0.00  0.00    +0.170 C 
ATOM      7  C   UNL     1       1.259   4.021   1.927  0.00  0.00    +0.007 C 
ATOM      8  C   UNL     1       0.154   3.732   2.631  0.00  0.00    -0.002 C 
ATOM      9  C   UNL     1      -0.626   2.520   2.577  0.00  0.00    +0.003 C 
ATOM     10  C   UNL     1      -1.260   1.946   1.540  0.00  0.00    +0.045 C 
ATOM     11  C   UNL     1      -1.370   2.371   0.156  0.00  0.00    +0.117 C 
ATOM     12  C   UNL     1      -1.797   1.586  -0.850  0.00  0.00    +0.055 C 
ATOM     13  C   UNL     1      -2.296   0.207  -0.767  0.00  0.00    +0.018 C 
ATOM     14  C   UNL     1      -3.587   0.011  -0.403  0.00  0.00    +0.096 C 
ATOM     15 CL   UNL     1      -4.671   1.288   0.062  0.00  0.00    -0.079 Cl
ATOM     16  C   UNL     1      -4.216  -1.343  -0.464  0.00  0.00    +0.201 C 
ATOM     17  O   UNL     1      -5.298  -1.617   0.043  0.00  0.00    -0.286 OA
ATOM     18  C   UNL     1      -3.510  -2.374  -1.250  0.00  0.00    +0.098 C 
ATOM     19  C   UNL     1      -2.235  -2.186  -1.600  0.00  0.00    +0.135 C 
ATOM     20  C   UNL     1      -1.485  -0.990  -1.159  0.00  0.00    +0.105 C 
ATOM     21  C   UNL     1      -0.124  -1.021  -1.062  0.00  0.00    +0.291 C 
ATOM     22  O   UNL     1       0.592   0.036  -0.515  0.00  0.00    -0.461 OA
ENDROOT
BRANCH  11  23
ATOM     23  O   UNL     1      -1.056   3.694  -0.077  0.00  0.00    -0.507 OA
ATOM     24  H   UNL     1      -1.182   3.892  -1.017  0.00  0.00    +0.292 HD
ENDBRANCH  11  23
BRANCH  19  25
ATOM     25  O   UNL     1      -1.546  -3.118  -2.357  0.00  0.00    -0.506 OA
ATOM     26  H   UNL     1      -2.164  -3.829  -2.615  0.00  0.00    +0.292 HD
ENDBRANCH  19  25
BRANCH  21  27
ATOM     27  O   UNL     1       0.612  -2.124  -1.470  0.00  0.00    -0.480 OA
ATOM     28  H   UNL     1       0.003  -2.722  -1.945  0.00  0.00    +0.295 HD
ENDBRANCH  21  27
TORSDOF 3
