MODEL 1
REMARK minimizedAffinity -5.40044928
REMARK minimizedRMSD -1
REMARK  Name = 
REMARK  3 active torsions:
REMARK  status: ('A' for Active; 'I' for Inactive)
REMARK    1  A    between atoms: C_3  and  N_15
REMARK    2  A    between atoms: C_21  and  O_22
REMARK    3  A    between atoms: C_21  and  N_23
REMARK                            x       y       z     vdW  Elec       q    Type
REMARK                         _______ _______ _______ _____ _____    ______ ____
ROOT
ATOM      1  C   UNL     1      26.966 -38.900  -2.841  0.00  0.00    +0.224 A 
ATOM      2  N   UNL     1      26.776 -38.460  -4.090  0.00  0.00    -0.220 NA
ATOM      3  C   UNL     1      26.247 -37.227  -4.287  0.00  0.00    +0.133 A 
ATOM      4  C   UNL     1      25.973 -36.420  -3.151  0.00  0.00    +0.051 A 
ATOM      5  C   UNL     1      25.516 -35.047  -2.962  0.00  0.00    -0.025 A 
ATOM      6  C   UNL     1      25.337 -34.751  -1.618  0.00  0.00    -0.004 A 
ATOM      7  S   UNL     1      25.792 -36.044  -0.603  0.00  0.00    -0.073 S 
ATOM      8  C   UNL     1      26.206 -37.026  -1.924  0.00  0.00    +0.114 A 
ATOM      9  N   UNL     1      26.693 -38.258  -1.707  0.00  0.00    -0.228 NA
ATOM     10  C   UNL     1      24.832 -33.474  -1.014  0.00  0.00    +0.043 C 
ATOM     11  C   UNL     1      25.708 -32.276  -1.378  0.00  0.00    +0.005 C 
ATOM     12  C   UNL     1      25.534 -31.796  -2.820  0.00  0.00    +0.001 C 
ATOM     13  C   UNL     1      26.073 -32.750  -3.887  0.00  0.00    +0.005 C 
ATOM     14  C   UNL     1      25.265 -34.040  -4.052  0.00  0.00    +0.037 C 
ENDROOT
BRANCH   3  15
ATOM     15  N   UNL     1      25.979 -36.825  -5.597  0.00  0.00    -0.310 N 
ATOM     16  C   UNL     1      25.323 -37.869  -6.391  0.00  0.00    +0.107 C 
ATOM     17  C   UNL     1      24.816 -37.282  -7.709  0.00  0.00    +0.023 C 
ATOM     18  C   UNL     1      25.921 -36.521  -8.441  0.00  0.00    +0.039 C 
ATOM     19  C   UNL     1      26.522 -35.487  -7.513  0.00  0.00    +0.004 C 
ATOM     20  C   UNL     1      27.079 -36.126  -6.258  0.00  0.00    +0.142 C 
ATOM     21  C   UNL     1      26.555 -34.167  -7.784  0.00  0.00    +0.175 C 
BRANCH  21  22
ATOM     22  N   UNL     1      26.144 -33.575  -8.923  0.00  0.00    -0.330 N 
ATOM     23  H   UNL     1      26.283 -32.575  -8.995  0.00  0.00    +0.145 HD
ATOM     24  H   UNL     1      25.818 -34.099  -9.720  0.00  0.00    +0.145 HD
ENDBRANCH  21  22
BRANCH  21  25
ATOM     25  O   UNL     1      27.028 -33.245  -6.890  0.00  0.00    -0.495 OA
ATOM     26  H   UNL     1      26.841 -33.570  -5.995  0.00  0.00    +0.293 HD
ENDBRANCH  21  25
ENDBRANCH   3  15
TORSDOF 3
ENDMDL
MODEL 2
REMARK minimizedAffinity -4.5003047
REMARK minimizedRMSD -1
REMARK  Name = 
REMARK  3 active torsions:
REMARK  status: ('A' for Active; 'I' for Inactive)
REMARK    1  A    between atoms: C_3  and  N_15
REMARK    2  A    between atoms: C_21  and  O_22
REMARK    3  A    between atoms: C_21  and  N_23
REMARK                            x       y       z     vdW  Elec       q    Type
REMARK                         _______ _______ _______ _____ _____    ______ ____
ROOT
ATOM      1  C   UNL     1      25.191 -37.784  -5.811  0.00  0.00    +0.224 A 
ATOM      2  N   UNL     1      25.274 -37.588  -4.490  0.00  0.00    -0.220 NA
ATOM      3  C   UNL     1      25.708 -36.392  -4.022  0.00  0.00    +0.133 A 
ATOM      4  C   UNL     1      26.000 -35.366  -4.959  0.00  0.00    +0.051 A 
ATOM      5  C   UNL     1      26.377 -33.960  -4.847  0.00  0.00    -0.025 A 
ATOM      6  C   UNL     1      26.620 -33.398  -6.092  0.00  0.00    -0.004 A 
ATOM      7  S   UNL     1      26.315 -34.489  -7.367  0.00  0.00    -0.073 S 
ATOM      8  C   UNL     1      25.884 -35.731  -6.293  0.00  0.00    +0.114 A 
ATOM      9  N   UNL     1      25.493 -36.920  -6.778  0.00  0.00    -0.228 NA
ATOM     10  C   UNL     1      27.078 -32.003  -6.401  0.00  0.00    +0.043 C 
ATOM     11  C   UNL     1      26.105 -30.946  -5.880  0.00  0.00    +0.005 C 
ATOM     12  C   UNL     1      26.156 -30.749  -4.364  0.00  0.00    +0.001 C 
ATOM     13  C   UNL     1      25.615 -31.920  -3.542  0.00  0.00    +0.005 C 
ATOM     14  C   UNL     1      26.493 -33.174  -3.568  0.00  0.00    +0.037 C 
ENDROOT
BRANCH   3  15
ATOM     15  N   UNL     1      25.866 -36.241  -2.643  0.00  0.00    -0.310 N 
ATOM     16  C   UNL     1      26.381 -37.450  -1.992  0.00  0.00    +0.107 C 
ATOM     17  C   UNL     1      26.787 -37.136  -0.552  0.00  0.00    +0.023 C 
ATOM     18  C   UNL     1      25.659 -36.435   0.203  0.00  0.00    +0.039 C 
ATOM     19  C   UNL     1      25.210 -35.216  -0.575  0.00  0.00    +0.004 C 
ATOM     20  C   UNL     1      24.746 -35.589  -1.968  0.00  0.00    +0.142 C 
ATOM     21  C   UNL     1      25.224 -33.963  -0.079  0.00  0.00    +0.175 C 
BRANCH  21  22
ATOM     22  N   UNL     1      25.551 -33.606   1.180  0.00  0.00    -0.330 N 
ATOM     23  H   UNL     1      25.461 -32.626   1.416  0.00  0.00    +0.145 HD
ATOM     24  H   UNL     1      25.768 -34.281   1.896  0.00  0.00    +0.145 HD
ENDBRANCH  21  22
BRANCH  21  25
ATOM     25  O   UNL     1      24.893 -32.870  -0.832  0.00  0.00    -0.495 OA
ATOM     26  H   UNL     1      25.150 -33.049  -1.751  0.00  0.00    +0.293 HD
ENDBRANCH  21  25
ENDBRANCH   3  15
TORSDOF 3
ENDMDL
MODEL 3
REMARK minimizedAffinity -4.34085083
REMARK minimizedRMSD -1
REMARK  Name = 
REMARK  3 active torsions:
REMARK  status: ('A' for Active; 'I' for Inactive)
REMARK    1  A    between atoms: C_3  and  N_15
REMARK    2  A    between atoms: C_21  and  O_22
REMARK    3  A    between atoms: C_21  and  N_23
REMARK                            x       y       z     vdW  Elec       q    Type
REMARK                         _______ _______ _______ _____ _____    ______ ____
ROOT
ATOM      1  C   UNL     1      26.766 -38.691  -2.072  0.00  0.00    +0.224 A 
ATOM      2  N   UNL     1      26.727 -38.551  -3.402  0.00  0.00    -0.220 NA
ATOM      3  C   UNL     1      26.308 -37.376  -3.934  0.00  0.00    +0.133 A 
ATOM      4  C   UNL     1      25.986 -36.312  -3.053  0.00  0.00    +0.051 A 
ATOM      5  C   UNL     1      25.612 -34.913  -3.236  0.00  0.00    -0.025 A 
ATOM      6  C   UNL     1      25.328 -34.299  -2.025  0.00  0.00    -0.004 A 
ATOM      7  S   UNL     1      25.591 -35.334  -0.696  0.00  0.00    -0.073 S 
ATOM      8  C   UNL     1      26.058 -36.620  -1.701  0.00  0.00    +0.114 A 
ATOM      9  N   UNL     1      26.432 -37.787  -1.154  0.00  0.00    -0.228 NA
ATOM     10  C   UNL     1      24.860 -32.893  -1.791  0.00  0.00    +0.043 C 
ATOM     11  C   UNL     1      25.850 -31.857  -2.323  0.00  0.00    +0.005 C 
ATOM     12  C   UNL     1      25.849 -31.725  -3.847  0.00  0.00    +0.001 C 
ATOM     13  C   UNL     1      26.417 -32.929  -4.600  0.00  0.00    +0.005 C 
ATOM     14  C   UNL     1      25.538 -34.182  -4.550  0.00  0.00    +0.037 C 
ENDROOT
BRANCH   3  15
ATOM     15  N   UNL     1      26.196 -37.285  -5.324  0.00  0.00    -0.310 N 
ATOM     16  C   UNL     1      27.035 -36.226  -5.895  0.00  0.00    +0.107 C 
ATOM     17  C   UNL     1      27.078 -36.358  -7.417  0.00  0.00    +0.023 C 
ATOM     18  C   UNL     1      25.672 -36.449  -8.008  0.00  0.00    +0.039 C 
ATOM     19  C   UNL     1      24.909 -37.566  -7.329  0.00  0.00    +0.004 C 
ATOM     20  C   UNL     1      24.827 -37.350  -5.832  0.00  0.00    +0.142 C 
ATOM     21  C   UNL     1      24.371 -38.613  -7.984  0.00  0.00    +0.175 C 
BRANCH  21  22
ATOM     22  N   UNL     1      24.353 -38.795  -9.321  0.00  0.00    -0.330 N 
ATOM     23  H   UNL     1      23.862 -39.611  -9.665  0.00  0.00    +0.145 HD
ATOM     24  H   UNL     1      24.705 -38.106  -9.966  0.00  0.00    +0.145 HD
ENDBRANCH  21  22
BRANCH  21  25
ATOM     25  O   UNL     1      23.760 -39.652  -7.336  0.00  0.00    -0.495 OA
ATOM     26  H   UNL     1      24.196 -39.767  -6.476  0.00  0.00    +0.293 HD
ENDBRANCH  21  25
ENDBRANCH   3  15
TORSDOF 3
ENDMDL
MODEL 4
REMARK minimizedAffinity -4.22768164
REMARK minimizedRMSD -1
REMARK  Name = 
REMARK  3 active torsions:
REMARK  status: ('A' for Active; 'I' for Inactive)
REMARK    1  A    between atoms: C_3  and  N_15
REMARK    2  A    between atoms: C_21  and  O_22
REMARK    3  A    between atoms: C_21  and  N_23
REMARK                            x       y       z     vdW  Elec       q    Type
REMARK                         _______ _______ _______ _____ _____    ______ ____
ROOT
ATOM      1  C   UNL     1      27.081 -30.882  -5.953  0.00  0.00    +0.224 A 
ATOM      2  N   UNL     1      26.716 -31.375  -4.764  0.00  0.00    -0.220 NA
ATOM      3  C   UNL     1      26.223 -32.637  -4.692  0.00  0.00    +0.133 A 
ATOM      4  C   UNL     1      26.173 -33.412  -5.880  0.00  0.00    +0.051 A 
ATOM      5  C   UNL     1      25.820 -34.796  -6.181  0.00  0.00    -0.025 A 
ATOM      6  C   UNL     1      25.872 -35.049  -7.544  0.00  0.00    -0.004 A 
ATOM      7  S   UNL     1      26.418 -33.701  -8.434  0.00  0.00    -0.073 S 
ATOM      8  C   UNL     1      26.569 -32.751  -7.035  0.00  0.00    +0.114 A 
ATOM      9  N   UNL     1      27.023 -31.492  -7.135  0.00  0.00    -0.228 NA
ATOM     10  C   UNL     1      25.531 -36.323  -8.259  0.00  0.00    +0.043 C 
ATOM     11  C   UNL     1      26.396 -37.495  -7.795  0.00  0.00    +0.005 C 
ATOM     12  C   UNL     1      26.019 -38.036  -6.414  0.00  0.00    +0.001 C 
ATOM     13  C   UNL     1      26.334 -37.099  -5.246  0.00  0.00    +0.005 C 
ATOM     14  C   UNL     1      25.448 -35.852  -5.175  0.00  0.00    +0.037 C 
ENDROOT
BRANCH   3  15
ATOM     15  N   UNL     1      25.771 -33.098  -3.453  0.00  0.00    -0.310 N 
ATOM     16  C   UNL     1      25.164 -32.041  -2.638  0.00  0.00    +0.107 C 
ATOM     17  C   UNL     1      24.452 -32.655  -1.433  0.00  0.00    +0.023 C 
ATOM     18  C   UNL     1      25.372 -33.604  -0.667  0.00  0.00    +0.039 C 
ATOM     19  C   UNL     1      25.941 -34.635  -1.619  0.00  0.00    +0.004 C 
ATOM     20  C   UNL     1      26.702 -33.980  -2.753  0.00  0.00    +0.142 C 
ATOM     21  C   UNL     1      25.786 -35.964  -1.463  0.00  0.00    +0.175 C 
BRANCH  21  22
ATOM     22  N   UNL     1      25.187 -36.583  -0.425  0.00  0.00    -0.330 N 
ATOM     23  H   UNL     1      25.197 -37.595  -0.428  0.00  0.00    +0.145 HD
ATOM     24  H   UNL     1      24.843 -36.082   0.379  0.00  0.00    +0.145 HD
ENDBRANCH  21  22
BRANCH  21  25
ATOM     25  O   UNL     1      26.238 -36.870  -2.384  0.00  0.00    -0.495 OA
ATOM     26  H   UNL     1      26.188 -36.457  -3.261  0.00  0.00    +0.293 HD
ENDBRANCH  21  25
ENDBRANCH   3  15
TORSDOF 3
ENDMDL
MODEL 5
REMARK minimizedAffinity -3.23460793
REMARK minimizedRMSD -1
REMARK  Name = 
REMARK  3 active torsions:
REMARK  status: ('A' for Active; 'I' for Inactive)
REMARK    1  A    between atoms: C_3  and  N_15
REMARK    2  A    between atoms: C_21  and  O_22
REMARK    3  A    between atoms: C_21  and  N_23
REMARK                            x       y       z     vdW  Elec       q    Type
REMARK                         _______ _______ _______ _____ _____    ______ ____
ROOT
ATOM      1  C   UNL     1      25.426 -37.362  -5.716  0.00  0.00    +0.224 A 
ATOM      2  N   UNL     1      25.274 -37.426  -4.388  0.00  0.00    -0.220 NA
ATOM      3  C   UNL     1      25.559 -36.335  -3.634  0.00  0.00    +0.133 A 
ATOM      4  C   UNL     1      25.951 -35.141  -4.293  0.00  0.00    +0.051 A 
ATOM      5  C   UNL     1      26.230 -33.778  -3.854  0.00  0.00    -0.025 A 
ATOM      6  C   UNL     1      26.650 -32.979  -4.908  0.00  0.00    -0.004 A 
ATOM      7  S   UNL     1      26.624 -33.807  -6.399  0.00  0.00    -0.073 S 
ATOM      8  C   UNL     1      26.082 -35.242  -5.672  0.00  0.00    +0.114 A 
ATOM      9  N   UNL     1      25.842 -36.321  -6.433  0.00  0.00    -0.228 NA
ATOM     10  C   UNL     1      27.081 -31.543  -4.862  0.00  0.00    +0.043 C 
ATOM     11  C   UNL     1      25.979 -30.626  -4.332  0.00  0.00    +0.005 C 
ATOM     12  C   UNL     1      25.762 -30.727  -2.821  0.00  0.00    +0.001 C 
ATOM     13  C   UNL     1      25.151 -32.046  -2.343  0.00  0.00    +0.005 C 
ATOM     14  C   UNL     1      26.086 -33.254  -2.450  0.00  0.00    +0.037 C 
ENDROOT
BRANCH   3  15
ATOM     15  N   UNL     1      25.472 -36.454  -2.245  0.00  0.00    -0.310 N 
ATOM     16  C   UNL     1      24.772 -35.327  -1.619  0.00  0.00    +0.107 C 
ATOM     17  C   UNL     1      24.472 -35.648  -0.155  0.00  0.00    +0.023 C 
ATOM     18  C   UNL     1      25.728 -36.109   0.583  0.00  0.00    +0.039 C 
ATOM     19  C   UNL     1      26.360 -37.262  -0.168  0.00  0.00    +0.004 C 
ATOM     20  C   UNL     1      26.709 -36.872  -1.589  0.00  0.00    +0.142 C 
ATOM     21  C   UNL     1      26.582 -38.476   0.373  0.00  0.00    +0.175 C 
BRANCH  21  22
ATOM     22  N   UNL     1      26.361 -38.833   1.654  0.00  0.00    -0.330 N 
ATOM     23  H   UNL     1      26.629 -39.771   1.921  0.00  0.00    +0.145 HD
ATOM     24  H   UNL     1      26.051 -38.177   2.354  0.00  0.00    +0.145 HD
ENDBRANCH  21  22
BRANCH  21  25
ATOM     25  O   UNL     1      27.077 -39.526  -0.353  0.00  0.00    -0.495 OA
ATOM     26  H   UNL     1      26.764 -39.432  -1.268  0.00  0.00    +0.293 HD
ENDBRANCH  21  25
ENDBRANCH   3  15
TORSDOF 3
ENDMDL
