REMARK  Name = 
REMARK  9 active torsions:
REMARK  status: ('A' for Active; 'I' for Inactive)
REMARK    1  A    between atoms: C_1  and  C_2
REMARK    2  A    between atoms: C_6  and  N_8
REMARK    3  A    between atoms: N_8  and  S_9
REMARK    4  A    between atoms: S_9  and  C_12
REMARK    5  A    between atoms: C_16  and  C_18
REMARK    6  A    between atoms: C_18  and  O_19
REMARK    7  A    between atoms: N_20  and  C_21
REMARK    8  A    between atoms: C_24  and  S_27
REMARK    9  A    between atoms: S_27  and  N_30
REMARK                            x       y       z     vdW  Elec       q    Type
REMARK                         _______ _______ _______ _____ _____    ______ ____
ROOT
ATOM      1  C   UNL     1       1.240  -3.498  -0.641  0.00  0.00    +0.220 C 
ATOM      2  N   UNL     1       0.482  -4.068  -1.514  0.00  0.00    -0.213 NA
ENDROOT
BRANCH   1   7
ATOM      3  C   UNL     1       2.421  -0.071   0.318  0.00  0.00    +0.109 A 
ATOM      4  C   UNL     1       1.284   0.460   0.937  0.00  0.00    +0.029 A 
ATOM      5  C   UNL     1       0.134  -0.321   1.055  0.00  0.00    +0.003 A 
ATOM      6  C   UNL     1       0.119  -1.620   0.543  0.00  0.00    +0.013 A 
ATOM      7  C   UNL     1       1.253  -2.134  -0.097  0.00  0.00    +0.038 A 
ATOM      8  C   UNL     1       2.412  -1.364  -0.213  0.00  0.00    +0.042 A 
BRANCH   3   9
ATOM      9  S   UNL     1       3.894   0.915   0.168  0.00  0.00    +0.072 S 
ATOM     10  O   UNL     1       3.535   2.295   0.416  0.00  0.00    -0.150 OA
ATOM     11  O   UNL     1       4.547   0.520  -1.062  0.00  0.00    -0.150 OA
BRANCH   9  12
ATOM     12  N   UNL     1       4.863   0.344   1.427  0.00  0.00    -0.216 N 
ATOM     13  H   UNL     1       5.454  -0.432   1.133  0.00  0.00    +0.174 HD
BRANCH  12  19
ATOM     14  C   UNL     1       3.275  -2.317   5.282  0.00  0.00    +0.044 C 
ATOM     15  C   UNL     1       3.515  -0.991   4.624  0.00  0.00    -0.049 A 
ATOM     16  C   UNL     1       3.217   0.200   5.298  0.00  0.00    +0.003 A 
ATOM     17  C   UNL     1       3.465   1.435   4.696  0.00  0.00    +0.002 A 
ATOM     18  C   UNL     1       4.019   1.490   3.418  0.00  0.00    +0.024 A 
ATOM     19  C   UNL     1       4.333   0.311   2.746  0.00  0.00    +0.048 A 
ATOM     20  C   UNL     1       4.089  -0.926   3.347  0.00  0.00    +0.027 A 
ENDBRANCH  12  19
ENDBRANCH   9  12
ENDBRANCH   3   9
ENDBRANCH   1   7
BRANCH   2  21
ATOM     21  C   UNL     1      -0.498  -3.311  -2.170  0.00  0.00    +0.068 A 
ATOM     22  C   UNL     1      -0.149  -2.401  -3.176  0.00  0.00    +0.030 A 
ATOM     23  C   UNL     1      -1.130  -1.646  -3.821  0.00  0.00    +0.030 A 
ATOM     24  C   UNL     1      -2.468  -1.812  -3.458  0.00  0.00    +0.106 A 
ATOM     25  C   UNL     1      -2.836  -2.747  -2.486  0.00  0.00    +0.030 A 
ATOM     26  C   UNL     1      -1.846  -3.500  -1.851  0.00  0.00    +0.030 A 
BRANCH  24  27
ATOM     27  S   UNL     1      -3.734  -0.847  -4.245  0.00  0.00    +0.061 S 
ATOM     28  O   UNL     1      -3.126  -0.045  -5.285  0.00  0.00    -0.153 OA
ATOM     29  O   UNL     1      -4.839  -1.737  -4.529  0.00  0.00    -0.153 OA
BRANCH  27  30
ATOM     30  N   UNL     1      -4.216   0.212  -2.993  0.00  0.00    -0.172 NA
ATOM     31  C   UNL     1      -3.172   1.198  -2.560  0.00  0.00    +0.137 C 
ATOM     32  C   UNL     1      -3.697   2.008  -1.369  0.00  0.00    +0.177 C 
ATOM     33  O   UNL     1      -4.909   2.699  -1.702  0.00  0.00    -0.377 OA
ATOM     34  C   UNL     1      -5.926   1.767  -2.098  0.00  0.00    +0.177 C 
ATOM     35  C   UNL     1      -5.486   0.944  -3.314  0.00  0.00    +0.137 C 
ENDBRANCH  27  30
ENDBRANCH  24  27
ENDBRANCH   2  21
BRANCH   1  36
ATOM     36  O   UNL     1       2.211  -4.235  -0.078  0.00  0.00    -0.492 OA
ATOM     37  H   UNL     1       2.150  -5.126  -0.466  0.00  0.00    +0.294 HD
ENDBRANCH   1  36
TORSDOF 8
