REMARK  Name = 
REMARK  9 active torsions:
REMARK  status: ('A' for Active; 'I' for Inactive)
REMARK    1  A    between atoms: C_1  and  C_2
REMARK    2  A    between atoms: C_6  and  N_8
REMARK    3  A    between atoms: N_8  and  S_9
REMARK    4  A    between atoms: S_9  and  C_12
REMARK    5  A    between atoms: C_16  and  C_18
REMARK    6  A    between atoms: C_18  and  O_19
REMARK    7  A    between atoms: N_20  and  C_21
REMARK    8  A    between atoms: C_24  and  S_27
REMARK    9  A    between atoms: S_27  and  N_30
REMARK                            x       y       z     vdW  Elec       q    Type
REMARK                         _______ _______ _______ _____ _____    ______ ____
ROOT
ATOM      1  C   UNL     1      -1.033  -0.637  -1.495  0.00  0.00    +0.220 C 
ATOM      2  N   UNL     1      -1.908  -1.384  -0.904  0.00  0.00    -0.213 NA
ENDROOT
BRANCH   1   7
ATOM      3  C   UNL     1      -0.498   1.301  -4.709  0.00  0.00    +0.109 A 
ATOM      4  C   UNL     1      -1.675   1.010  -5.405  0.00  0.00    +0.029 A 
ATOM      5  C   UNL     1      -2.637   0.193  -4.814  0.00  0.00    +0.003 A 
ATOM      6  C   UNL     1      -2.417  -0.333  -3.538  0.00  0.00    +0.013 A 
ATOM      7  C   UNL     1      -1.228  -0.056  -2.845  0.00  0.00    +0.038 A 
ATOM      8  C   UNL     1      -0.259   0.758  -3.441  0.00  0.00    +0.042 A 
BRANCH   3   9
ATOM      9  S   UNL     1       0.733   2.339  -5.466  0.00  0.00    +0.072 S 
ATOM     10  O   UNL     1       2.010   2.041  -4.855  0.00  0.00    -0.150 OA
ATOM     11  O   UNL     1       0.552   2.249  -6.900  0.00  0.00    -0.150 OA
BRANCH   9  12
ATOM     12  N   UNL     1       0.241   3.894  -5.032  0.00  0.00    -0.216 N 
ATOM     13  H   UNL     1      -0.386   4.304  -5.721  0.00  0.00    +0.174 HD
BRANCH  12  19
ATOM     14  C   UNL     1       1.944   4.369  -0.388  0.00  0.00    +0.044 C 
ATOM     15  C   UNL     1       0.817   4.403  -1.378  0.00  0.00    -0.049 A 
ATOM     16  C   UNL     1      -0.479   4.743  -0.970  0.00  0.00    +0.003 A 
ATOM     17  C   UNL     1      -1.518   4.805  -1.899  0.00  0.00    +0.002 A 
ATOM     18  C   UNL     1      -1.271   4.533  -3.245  0.00  0.00    +0.024 A 
ATOM     19  C   UNL     1       0.019   4.202  -3.661  0.00  0.00    +0.048 A 
ATOM     20  C   UNL     1       1.060   4.147  -2.734  0.00  0.00    +0.027 A 
ENDBRANCH  12  19
ENDBRANCH   9  12
ENDBRANCH   3   9
ENDBRANCH   1   7
BRANCH   2  21
ATOM     21  C   UNL     1      -1.666  -1.903   0.369  0.00  0.00    +0.068 A 
ATOM     22  C   UNL     1      -1.088  -3.168   0.514  0.00  0.00    +0.030 A 
ATOM     23  C   UNL     1      -0.858  -3.700   1.785  0.00  0.00    +0.030 A 
ATOM     24  C   UNL     1      -1.202  -2.955   2.917  0.00  0.00    +0.106 A 
ATOM     25  C   UNL     1      -1.817  -1.706   2.783  0.00  0.00    +0.030 A 
ATOM     26  C   UNL     1      -2.043  -1.184   1.507  0.00  0.00    +0.030 A 
BRANCH  24  27
ATOM     27  S   UNL     1      -0.946  -3.645   4.542  0.00  0.00    +0.061 S 
ATOM     28  O   UNL     1      -1.881  -2.998   5.438  0.00  0.00    -0.153 OA
ATOM     29  O   UNL     1      -0.913  -5.084   4.399  0.00  0.00    -0.153 OA
BRANCH  27  30
ATOM     30  N   UNL     1       0.609  -3.123   4.948  0.00  0.00    -0.172 NA
ATOM     31  C   UNL     1       0.783  -1.691   5.312  0.00  0.00    +0.137 C 
ATOM     32  C   UNL     1       2.272  -1.375   5.488  0.00  0.00    +0.177 C 
ATOM     33  O   UNL     1       3.024  -1.562   4.281  0.00  0.00    -0.377 OA
ATOM     34  C   UNL     1       2.534  -2.628   3.457  0.00  0.00    +0.177 C 
ATOM     35  C   UNL     1       1.772  -3.710   4.230  0.00  0.00    +0.137 C 
ENDBRANCH  27  30
ENDBRANCH  24  27
ENDBRANCH   2  21
BRANCH   1  36
ATOM     36  O   UNL     1       0.155  -0.294  -0.962  0.00  0.00    -0.492 OA
ATOM     37  H   UNL     1       0.269  -0.680  -0.082  0.00  0.00    +0.294 HD
ENDBRANCH   1  36
TORSDOF 8
