REMARK  Name = 
REMARK  8 active torsions:
REMARK  status: ('A' for Active; 'I' for Inactive)
REMARK    1  A    between atoms: C_1  and  C_2
REMARK    2  A    between atoms: C_6  and  N_8
REMARK    3  A    between atoms: N_8  and  S_9
REMARK    4  A    between atoms: S_9  and  C_12
REMARK    5  A    between atoms: C_16  and  C_18
REMARK    6  A    between atoms: N_20  and  C_21
REMARK    7  A    between atoms: C_24  and  S_27
REMARK    8  A    between atoms: S_27  and  N_30
REMARK                            x       y       z     vdW  Elec       q    Type
REMARK                         _______ _______ _______ _____ _____    ______ ____
ROOT
ATOM      1  C   UNL     1       0.403   0.594  -1.253  0.00  0.00    +0.248 C 
ATOM      2  O   UNL     1      -0.377   1.408  -0.775  0.00  0.00    -0.270 OA
ATOM      3  N   UNL     1       0.416  -0.773  -1.046  0.00  0.00    -0.282 N 
ATOM      4  H   UNL     1       1.067  -1.315  -1.599  0.00  0.00    +0.155 HD
ENDROOT
BRANCH   1   9
ATOM      5  C   UNL     1       2.085   2.611  -3.955  0.00  0.00    +0.109 A 
ATOM      6  C   UNL     1       3.380   2.082  -3.958  0.00  0.00    +0.029 A 
ATOM      7  C   UNL     1       3.715   1.072  -3.056  0.00  0.00    +0.003 A 
ATOM      8  C   UNL     1       2.755   0.581  -2.167  0.00  0.00    +0.013 A 
ATOM      9  C   UNL     1       1.448   1.091  -2.190  0.00  0.00    +0.039 A 
ATOM     10  C   UNL     1       1.112   2.112  -3.084  0.00  0.00    +0.042 A 
BRANCH   5  11
ATOM     11  S   UNL     1       1.656   3.891  -5.115  0.00  0.00    +0.072 S 
ATOM     12  O   UNL     1       2.568   3.776  -6.235  0.00  0.00    -0.150 OA
ATOM     13  O   UNL     1       0.224   3.853  -5.314  0.00  0.00    -0.150 OA
BRANCH  11  14
ATOM     14  N   UNL     1       2.088   5.308  -4.309  0.00  0.00    -0.216 N 
ATOM     15  H   UNL     1       3.031   5.613  -4.540  0.00  0.00    +0.174 HD
BRANCH  14  21
ATOM     16  C   UNL     1      -1.670   5.828  -1.096  0.00  0.00    +0.044 C 
ATOM     17  C   UNL     1      -0.200   5.809  -1.399  0.00  0.00    -0.049 A 
ATOM     18  C   UNL     1       0.739   5.910  -0.366  0.00  0.00    +0.003 A 
ATOM     19  C   UNL     1       2.105   5.853  -0.644  0.00  0.00    +0.002 A 
ATOM     20  C   UNL     1       2.543   5.673  -1.956  0.00  0.00    +0.024 A 
ATOM     21  C   UNL     1       1.613   5.546  -2.989  0.00  0.00    +0.048 A 
ATOM     22  C   UNL     1       0.248   5.622  -2.713  0.00  0.00    +0.027 A 
ENDBRANCH  14  21
ENDBRANCH  11  14
ENDBRANCH   5  11
ENDBRANCH   1   9
BRANCH   3  23
ATOM     23  C   UNL     1      -0.421  -1.516  -0.186  0.00  0.00    +0.034 A 
ATOM     24  C   UNL     1      -0.243  -2.907  -0.168  0.00  0.00    +0.025 A 
ATOM     25  C   UNL     1      -1.027  -3.716   0.659  0.00  0.00    +0.030 A 
ATOM     26  C   UNL     1      -1.993  -3.130   1.477  0.00  0.00    +0.106 A 
ATOM     27  C   UNL     1      -2.190  -1.749   1.465  0.00  0.00    +0.030 A 
ATOM     28  C   UNL     1      -1.398  -0.946   0.636  0.00  0.00    +0.025 A 
BRANCH  26  29
ATOM     29  S   UNL     1      -2.983  -4.169   2.520  0.00  0.00    +0.061 S 
ATOM     30  O   UNL     1      -3.464  -5.263   1.705  0.00  0.00    -0.153 OA
ATOM     31  O   UNL     1      -3.890  -3.338   3.284  0.00  0.00    -0.153 OA
BRANCH  29  32
ATOM     32  N   UNL     1      -1.833  -4.793   3.615  0.00  0.00    -0.172 NA
ATOM     33  C   UNL     1      -1.213  -3.794   4.549  0.00  0.00    +0.137 C 
ATOM     34  C   UNL     1      -1.763  -3.950   5.969  0.00  0.00    +0.177 C 
ATOM     35  O   UNL     1      -1.483  -5.237   6.537  0.00  0.00    -0.377 OA
ATOM     36  C   UNL     1      -1.445  -6.291   5.564  0.00  0.00    +0.177 C 
ATOM     37  C   UNL     1      -2.321  -6.013   4.340  0.00  0.00    +0.137 C 
ENDBRANCH  29  32
ENDBRANCH  26  29
ENDBRANCH   3  23
TORSDOF 7
