REMARK  Name = 
REMARK  9 active torsions:
REMARK  status: ('A' for Active; 'I' for Inactive)
REMARK    1  A    between atoms: C_1  and  C_2
REMARK    2  A    between atoms: C_6  and  N_8
REMARK    3  A    between atoms: N_8  and  S_9
REMARK    4  A    between atoms: S_9  and  C_12
REMARK    5  A    between atoms: C_16  and  C_18
REMARK    6  A    between atoms: C_18  and  O_19
REMARK    7  A    between atoms: N_20  and  C_21
REMARK    8  A    between atoms: C_24  and  S_27
REMARK    9  A    between atoms: S_27  and  N_30
REMARK                            x       y       z     vdW  Elec       q    Type
REMARK                         _______ _______ _______ _____ _____    ______ ____
ROOT
ATOM      1  C   UNL     1       0.591  -1.546  -2.283  0.00  0.00    +0.220 C 
ATOM      2  N   UNL     1       0.006  -0.514  -1.770  0.00  0.00    -0.213 NA
ENDROOT
BRANCH   1   7
ATOM      3  C   UNL     1      -2.198  -3.438  -3.971  0.00  0.00    +0.109 A 
ATOM      4  C   UNL     1      -1.527  -4.536  -4.518  0.00  0.00    +0.029 A 
ATOM      5  C   UNL     1      -0.152  -4.662  -4.330  0.00  0.00    +0.003 A 
ATOM      6  C   UNL     1       0.547  -3.694  -3.603  0.00  0.00    +0.013 A 
ATOM      7  C   UNL     1      -0.122  -2.584  -3.067  0.00  0.00    +0.038 A 
ATOM      8  C   UNL     1      -1.501  -2.451  -3.265  0.00  0.00    +0.042 A 
BRANCH   3   9
ATOM      9  S   UNL     1      -3.954  -3.274  -4.207  0.00  0.00    +0.072 S 
ATOM     10  O   UNL     1      -4.291  -1.870  -4.125  0.00  0.00    -0.150 OA
ATOM     11  O   UNL     1      -4.309  -4.061  -5.370  0.00  0.00    -0.150 OA
BRANCH   9  12
ATOM     12  N   UNL     1      -4.597  -4.096  -2.878  0.00  0.00    -0.216 N 
ATOM     13  H   UNL     1      -4.746  -5.083  -3.076  0.00  0.00    +0.174 HD
BRANCH  12  19
ATOM     14  C   UNL     1      -2.168  -5.289   1.263  0.00  0.00    +0.044 C 
ATOM     15  C   UNL     1      -2.950  -4.301   0.449  0.00  0.00    -0.049 A 
ATOM     16  C   UNL     1      -3.253  -3.037   0.969  0.00  0.00    +0.003 A 
ATOM     17  C   UNL     1      -4.003  -2.127   0.223  0.00  0.00    +0.002 A 
ATOM     18  C   UNL     1      -4.464  -2.475  -1.046  0.00  0.00    +0.024 A 
ATOM     19  C   UNL     1      -4.178  -3.736  -1.567  0.00  0.00    +0.048 A 
ATOM     20  C   UNL     1      -3.431  -4.650  -0.820  0.00  0.00    +0.027 A 
ENDBRANCH  12  19
ENDBRANCH   9  12
ENDBRANCH   3   9
ENDBRANCH   1   7
BRANCH   2  21
ATOM     21  C   UNL     1       0.729   0.426  -1.033  0.00  0.00    +0.068 A 
ATOM     22  C   UNL     1       1.329   1.515  -1.673  0.00  0.00    +0.030 A 
ATOM     23  C   UNL     1       2.043   2.462  -0.935  0.00  0.00    +0.030 A 
ATOM     24  C   UNL     1       2.138   2.320   0.452  0.00  0.00    +0.106 A 
ATOM     25  C   UNL     1       1.535   1.242   1.105  0.00  0.00    +0.030 A 
ATOM     26  C   UNL     1       0.826   0.301   0.357  0.00  0.00    +0.030 A 
BRANCH  24  27
ATOM     27  S   UNL     1       3.039   3.538   1.380  0.00  0.00    +0.061 S 
ATOM     28  O   UNL     1       2.886   3.240   2.788  0.00  0.00    -0.153 OA
ATOM     29  O   UNL     1       4.349   3.639   0.775  0.00  0.00    -0.153 OA
BRANCH  27  30
ATOM     30  N   UNL     1       2.181   4.968   1.050  0.00  0.00    -0.172 NA
ATOM     31  C   UNL     1       0.776   5.056   1.564  0.00  0.00    +0.137 C 
ATOM     32  C   UNL     1       0.724   5.527   3.023  0.00  0.00    +0.177 C 
ATOM     33  O   UNL     1       1.431   6.762   3.203  0.00  0.00    -0.377 OA
ATOM     34  C   UNL     1       2.807   6.614   2.824  0.00  0.00    +0.177 C 
ATOM     35  C   UNL     1       2.921   6.235   1.345  0.00  0.00    +0.137 C 
ENDBRANCH  27  30
ENDBRANCH  24  27
ENDBRANCH   2  21
BRANCH   1  36
ATOM     36  O   UNL     1       1.907  -1.812  -2.167  0.00  0.00    -0.492 OA
ATOM     37  H   UNL     1       2.357  -1.123  -1.656  0.00  0.00    +0.294 HD
ENDBRANCH   1  36
TORSDOF 8
