REMARK  Name = 
REMARK  8 active torsions:
REMARK  status: ('A' for Active; 'I' for Inactive)
REMARK    1  A    between atoms: C_1  and  C_2
REMARK    2  A    between atoms: C_6  and  N_8
REMARK    3  A    between atoms: N_8  and  S_9
REMARK    4  A    between atoms: S_9  and  C_12
REMARK    5  A    between atoms: C_16  and  C_18
REMARK    6  A    between atoms: N_20  and  C_21
REMARK    7  A    between atoms: C_24  and  S_27
REMARK    8  A    between atoms: S_27  and  N_30
REMARK                            x       y       z     vdW  Elec       q    Type
REMARK                         _______ _______ _______ _____ _____    ______ ____
ROOT
ATOM      1  C   UNL     1       0.303   0.903  -1.047  0.00  0.00    +0.248 C 
ATOM      2  O   UNL     1       0.190   0.115  -1.977  0.00  0.00    -0.270 OA
ATOM      3  N   UNL     1      -0.455   0.941   0.110  0.00  0.00    -0.282 N 
ATOM      4  H   UNL     1      -0.146   1.569   0.840  0.00  0.00    +0.155 HD
ENDROOT
BRANCH   1   9
ATOM      5  C   UNL     1       3.640   2.496  -1.768  0.00  0.00    +0.109 A 
ATOM      6  C   UNL     1       3.461   3.795  -1.282  0.00  0.00    +0.029 A 
ATOM      7  C   UNL     1       2.233   4.162  -0.732  0.00  0.00    +0.003 A 
ATOM      8  C   UNL     1       1.194   3.230  -0.653  0.00  0.00    +0.013 A 
ATOM      9  C   UNL     1       1.389   1.919  -1.113  0.00  0.00    +0.039 A 
ATOM     10  C   UNL     1       2.614   1.550  -1.676  0.00  0.00    +0.042 A 
BRANCH   5  11
ATOM     11  S   UNL     1       5.211   2.026  -2.461  0.00  0.00    +0.072 S 
ATOM     12  O   UNL     1       6.210   2.905  -1.889  0.00  0.00    -0.150 OA
ATOM     13  O   UNL     1       5.335   0.589  -2.351  0.00  0.00    -0.150 OA
BRANCH  11  14
ATOM     14  N   UNL     1       5.073   2.471  -4.081  0.00  0.00    -0.216 N 
ATOM     15  H   UNL     1       5.433   3.406  -4.258  0.00  0.00    +0.174 HD
BRANCH  14  21
ATOM     16  C   UNL     1       2.261  -1.200  -5.905  0.00  0.00    +0.044 C 
ATOM     17  C   UNL     1       2.565   0.261  -5.748  0.00  0.00    -0.049 A 
ATOM     18  C   UNL     1       1.685   1.227  -6.250  0.00  0.00    +0.003 A 
ATOM     19  C   UNL     1       1.949   2.585  -6.069  0.00  0.00    +0.002 A 
ATOM     20  C   UNL     1       3.085   2.989  -5.367  0.00  0.00    +0.024 A 
ATOM     21  C   UNL     1       3.954   2.032  -4.842  0.00  0.00    +0.048 A 
ATOM     22  C   UNL     1       3.700   0.674  -5.038  0.00  0.00    +0.027 A 
ENDBRANCH  14  21
ENDBRANCH  11  14
ENDBRANCH   5  11
ENDBRANCH   1   9
BRANCH   3  23
ATOM     23  C   UNL     1      -1.583   0.151   0.415  0.00  0.00    +0.034 A 
ATOM     24  C   UNL     1      -2.176  -0.742  -0.482  0.00  0.00    +0.025 A 
ATOM     25  C   UNL     1      -3.300  -1.486  -0.109  0.00  0.00    +0.030 A 
ATOM     26  C   UNL     1      -3.824  -1.351   1.177  0.00  0.00    +0.106 A 
ATOM     27  C   UNL     1      -3.261  -0.443   2.076  0.00  0.00    +0.030 A 
ATOM     28  C   UNL     1      -2.141   0.300   1.694  0.00  0.00    +0.025 A 
BRANCH  26  29
ATOM     29  S   UNL     1      -5.272  -2.276   1.644  0.00  0.00    +0.061 S 
ATOM     30  O   UNL     1      -5.912  -1.560   2.727  0.00  0.00    -0.153 OA
ATOM     31  O   UNL     1      -5.995  -2.595   0.431  0.00  0.00    -0.153 OA
BRANCH  29  32
ATOM     32  N   UNL     1      -4.642  -3.718   2.274  0.00  0.00    -0.172 NA
ATOM     33  C   UNL     1      -3.889  -3.627   3.556  0.00  0.00    +0.137 C 
ATOM     34  C   UNL     1      -3.695  -5.035   4.130  0.00  0.00    +0.177 C 
ATOM     35  O   UNL     1      -3.009  -5.884   3.197  0.00  0.00    -0.377 OA
ATOM     36  C   UNL     1      -3.768  -6.006   1.983  0.00  0.00    +0.177 C 
ATOM     37  C   UNL     1      -3.966  -4.639   1.317  0.00  0.00    +0.137 C 
ENDBRANCH  29  32
ENDBRANCH  26  29
ENDBRANCH   3  23
TORSDOF 7
