MODEL 1
REMARK minimizedAffinity -3.02237916
REMARK minimizedRMSD -1
REMARK  Name = 
REMARK  4 active torsions:
REMARK  status: ('A' for Active; 'I' for Inactive)
REMARK    1  A    between atoms: C_1  and  C_2
REMARK    2  A    between atoms: C_11  and  O_12
REMARK    3  A    between atoms: C_17  and  O_18
REMARK    4  A    between atoms: C_23  and  O_24
REMARK                            x       y       z     vdW  Elec       q    Type
REMARK                         _______ _______ _______ _____ _____    ______ ____
ROOT
ATOM      1  C   UNL     1      -1.311  46.861 -11.581  0.00  0.00    +0.052 C 
ATOM      2  C   UNL     1      -2.251  47.129 -10.406  0.00  0.00    +0.176 C 
ATOM      3  C   UNL     1      -3.218  48.293 -10.676  0.00  0.00    +0.079 C 
ATOM      4  C   UNL     1      -2.579  49.591 -11.092  0.00  0.00    +0.155 C 
ATOM      5  O   UNL     1      -3.489  50.692 -10.939  0.00  0.00    -0.364 OA
ATOM      6  C   UNL     1      -2.301  50.727 -10.130  0.00  0.00    +0.170 C 
ATOM      7  C   UNL     1      -1.271  51.734 -10.426  0.00  0.00    +0.007 C 
ATOM      8  C   UNL     1       0.064  51.600 -10.485  0.00  0.00    -0.002 C 
ATOM      9  C   UNL     1       0.805  50.380 -10.275  0.00  0.00    +0.003 C 
ATOM     10  C   UNL     1       0.693  49.616  -9.179  0.00  0.00    +0.045 C 
ATOM     11  C   UNL     1       1.362  48.345  -8.983  0.00  0.00    +0.117 C 
ATOM     12  C   UNL     1       1.114  47.503  -7.964  0.00  0.00    +0.055 C 
ATOM     13  C   UNL     1       0.190  47.711  -6.839  0.00  0.00    +0.018 C 
ATOM     14  C   UNL     1       0.701  48.185  -5.674  0.00  0.00    +0.091 C 
ATOM     15 CL   UNL     1       2.389  48.614  -5.501  0.00  0.00    -0.079 Cl
ATOM     16  C   UNL     1      -0.109  48.322  -4.473  0.00  0.00    +0.139 C 
ATOM     17  C   UNL     1      -1.362  47.876  -4.399  0.00  0.00    +0.098 C 
ATOM     18  C   UNL     1      -2.000  47.272  -5.581  0.00  0.00    +0.197 C 
ATOM     19  O   UNL     1      -3.111  46.759  -5.478  0.00  0.00    -0.287 OA
ATOM     20  C   UNL     1      -1.258  47.363  -6.890  0.00  0.00    +0.110 C 
ATOM     21  C   UNL     1      -1.997  47.155  -8.012  0.00  0.00    +0.291 C 
ATOM     22  O   UNL     1      -1.428  47.353  -9.255  0.00  0.00    -0.461 OA
ENDROOT
BRANCH  11  23
ATOM     23  O   UNL     1       2.279  48.027  -9.966  0.00  0.00    -0.507 OA
ATOM     24  H   UNL     1       2.640  47.144  -9.784  0.00  0.00    +0.292 HD
ENDBRANCH  11  23
BRANCH  16  25
ATOM     25  O   UNL     1       0.468  48.900  -3.356  0.00  0.00    -0.505 OA
ATOM     26  H   UNL     1       1.385  49.149  -3.583  0.00  0.00    +0.292 HD
ENDBRANCH  16  25
BRANCH  21  27
ATOM     27  O   UNL     1      -3.333  46.784  -7.981  0.00  0.00    -0.480 OA
ATOM     28  H   UNL     1      -3.606  46.627  -7.051  0.00  0.00    +0.295 HD
ENDBRANCH  21  27
TORSDOF 3
ENDMDL
MODEL 2
REMARK minimizedAffinity -1.70417595
REMARK minimizedRMSD -1
REMARK  Name = 
REMARK  4 active torsions:
REMARK  status: ('A' for Active; 'I' for Inactive)
REMARK    1  A    between atoms: C_1  and  C_2
REMARK    2  A    between atoms: C_11  and  O_12
REMARK    3  A    between atoms: C_17  and  O_18
REMARK    4  A    between atoms: C_23  and  O_24
REMARK                            x       y       z     vdW  Elec       q    Type
REMARK                         _______ _______ _______ _____ _____    ______ ____
ROOT
ATOM      1  C   UNL     1      -1.208  46.759 -10.523  0.00  0.00    +0.052 C 
ATOM      2  C   UNL     1      -0.462  47.870 -11.259  0.00  0.00    +0.176 C 
ATOM      3  C   UNL     1       1.066  47.709 -11.180  0.00  0.00    +0.079 C 
ATOM      4  C   UNL     1       1.638  47.575  -9.795  0.00  0.00    +0.155 C 
ATOM      5  O   UNL     1       3.053  47.825  -9.789  0.00  0.00    -0.364 OA
ATOM      6  C   UNL     1       2.241  48.734  -9.027  0.00  0.00    +0.170 C 
ATOM      7  C   UNL     1       2.329  48.706  -7.560  0.00  0.00    +0.007 C 
ATOM      8  C   UNL     1       1.349  48.749  -6.643  0.00  0.00    -0.002 C 
ATOM      9  C   UNL     1      -0.065  48.821  -6.915  0.00  0.00    +0.003 C 
ATOM     10  C   UNL     1      -0.632  49.760  -7.687  0.00  0.00    +0.045 C 
ATOM     11  C   UNL     1      -2.037  49.802  -8.043  0.00  0.00    +0.117 C 
ATOM     12  C   UNL     1      -2.567  50.640  -8.952  0.00  0.00    +0.055 C 
ATOM     13  C   UNL     1      -1.871  51.694  -9.706  0.00  0.00    +0.018 C 
ATOM     14  C   UNL     1      -1.931  52.964  -9.229  0.00  0.00    +0.091 C 
ATOM     15 CL   UNL     1      -2.739  53.360  -7.729  0.00  0.00    -0.079 Cl
ATOM     16  C   UNL     1      -1.369  54.091  -9.958  0.00  0.00    +0.139 C 
ATOM     17  C   UNL     1      -0.877  53.973 -11.191  0.00  0.00    +0.098 C 
ATOM     18  C   UNL     1      -0.829  52.654 -11.843  0.00  0.00    +0.197 C 
ATOM     19  O   UNL     1      -0.484  52.568 -13.018  0.00  0.00    -0.287 OA
ATOM     20  C   UNL     1      -1.169  51.453 -10.999  0.00  0.00    +0.110 C 
ATOM     21  C   UNL     1      -0.764  50.248 -11.482  0.00  0.00    +0.291 C 
ATOM     22  O   UNL     1      -0.913  49.113 -10.708  0.00  0.00    -0.461 OA
ENDROOT
BRANCH  11  23
ATOM     23  O   UNL     1      -2.818  48.869  -7.390  0.00  0.00    -0.507 OA
ATOM     24  H   UNL     1      -3.728  48.934  -7.723  0.00  0.00    +0.292 HD
ENDBRANCH  11  23
BRANCH  16  25
ATOM     25  O   UNL     1      -1.391  55.337  -9.357  0.00  0.00    -0.505 OA
ATOM     26  H   UNL     1      -1.797  55.240  -8.474  0.00  0.00    +0.292 HD
ENDBRANCH  16  25
BRANCH  21  27
ATOM     27  O   UNL     1      -0.158  50.094 -12.720  0.00  0.00    -0.480 OA
ATOM     28  H   UNL     1      -0.153  50.956 -13.189  0.00  0.00    +0.295 HD
ENDBRANCH  21  27
TORSDOF 3
ENDMDL
MODEL 3
REMARK minimizedAffinity -1.32204175
REMARK minimizedRMSD -1
REMARK  Name = 
REMARK  4 active torsions:
REMARK  status: ('A' for Active; 'I' for Inactive)
REMARK    1  A    between atoms: C_1  and  C_2
REMARK    2  A    between atoms: C_11  and  O_12
REMARK    3  A    between atoms: C_17  and  O_18
REMARK    4  A    between atoms: C_23  and  O_24
REMARK                            x       y       z     vdW  Elec       q    Type
REMARK                         _______ _______ _______ _____ _____    ______ ____
ROOT
ATOM      1  C   UNL     1      -0.599  51.204 -11.374  0.00  0.00    +0.052 C 
ATOM      2  C   UNL     1       0.455  50.102 -11.280  0.00  0.00    +0.176 C 
ATOM      3  C   UNL     1       0.115  48.883 -12.154  0.00  0.00    +0.079 C 
ATOM      4  C   UNL     1      -1.243  48.276 -11.928  0.00  0.00    +0.155 C 
ATOM      5  O   UNL     1      -1.319  46.950 -12.477  0.00  0.00    -0.364 OA
ATOM      6  C   UNL     1      -1.477  47.062 -11.052  0.00  0.00    +0.170 C 
ATOM      7  C   UNL     1      -2.797  46.797 -10.462  0.00  0.00    +0.007 C 
ATOM      8  C   UNL     1      -3.462  47.477  -9.513  0.00  0.00    -0.002 C 
ATOM      9  C   UNL     1      -3.006  48.673  -8.849  0.00  0.00    +0.003 C 
ATOM     10  C   UNL     1      -1.827  48.775  -8.216  0.00  0.00    +0.045 C 
ATOM     11  C   UNL     1      -1.312  49.990  -7.617  0.00  0.00    +0.117 C 
ATOM     12  C   UNL     1      -0.063  50.133  -7.138  0.00  0.00    +0.055 C 
ATOM     13  C   UNL     1       0.987  49.106  -7.068  0.00  0.00    +0.018 C 
ATOM     14  C   UNL     1       1.146  48.435  -5.898  0.00  0.00    +0.091 C 
ATOM     15 CL   UNL     1       0.103  48.706  -4.519  0.00  0.00    -0.079 Cl
ATOM     16  C   UNL     1       2.224  47.480  -5.693  0.00  0.00    +0.139 C 
ATOM     17  C   UNL     1       3.197  47.296  -6.586  0.00  0.00    +0.098 C 
ATOM     18  C   UNL     1       3.173  48.027  -7.863  0.00  0.00    +0.197 C 
ATOM     19  O   UNL     1       4.128  47.943  -8.632  0.00  0.00    -0.287 OA
ATOM     20  C   UNL     1       1.930  48.816  -8.186  0.00  0.00    +0.110 C 
ATOM     21  C   UNL     1       1.762  49.162  -9.489  0.00  0.00    +0.291 C 
ATOM     22  O   UNL     1       0.587  49.766  -9.893  0.00  0.00    -0.461 OA
ENDROOT
BRANCH  11  23
ATOM     23  O   UNL     1      -2.208  51.041  -7.600  0.00  0.00    -0.507 OA
ATOM     24  H   UNL     1      -1.767  51.823  -7.230  0.00  0.00    +0.292 HD
ENDBRANCH  11  23
BRANCH  16  25
ATOM     25  O   UNL     1       2.257  46.772  -4.505  0.00  0.00    -0.505 OA
ATOM     26  H   UNL     1       1.486  47.043  -3.970  0.00  0.00    +0.292 HD
ENDBRANCH  16  25
BRANCH  21  27
ATOM     27  O   UNL     1       2.708  48.902 -10.470  0.00  0.00    -0.480 OA
ATOM     28  H   UNL     1       3.510  48.519 -10.054  0.00  0.00    +0.295 HD
ENDBRANCH  21  27
TORSDOF 3
ENDMDL
