MODEL 1
REMARK minimizedAffinity -4.43437672
REMARK minimizedRMSD -1
REMARK  Name = 
REMARK  9 active torsions:
REMARK  status: ('A' for Active; 'I' for Inactive)
REMARK    1  A    between atoms: C_1  and  C_2
REMARK    2  A    between atoms: C_6  and  N_8
REMARK    3  A    between atoms: N_8  and  S_9
REMARK    4  A    between atoms: S_9  and  C_12
REMARK    5  A    between atoms: C_16  and  C_18
REMARK    6  A    between atoms: C_18  and  O_19
REMARK    7  A    between atoms: N_20  and  C_21
REMARK    8  A    between atoms: C_24  and  S_27
REMARK    9  A    between atoms: S_27  and  N_30
REMARK                            x       y       z     vdW  Elec       q    Type
REMARK                         _______ _______ _______ _____ _____    ______ ____
ROOT
ATOM      1  C   UNL     1       7.920  -3.289 -11.082  0.00  0.00    +0.220 C 
ATOM      2  N   UNL     1       9.085  -3.141 -11.615  0.00  0.00    -0.213 NA
ENDROOT
BRANCH   1   7
ATOM      3  C   UNL     1       6.321  -1.443  -8.237  0.00  0.00    +0.109 A 
ATOM      4  C   UNL     1       5.512  -0.522  -8.914  0.00  0.00    +0.029 A 
ATOM      5  C   UNL     1       5.471  -0.535 -10.310  0.00  0.00    +0.003 A 
ATOM      6  C   UNL     1       6.245  -1.453 -11.021  0.00  0.00    +0.013 A 
ATOM      7  C   UNL     1       7.070  -2.352 -10.334  0.00  0.00    +0.038 A 
ATOM      8  C   UNL     1       7.113  -2.355  -8.939  0.00  0.00    +0.042 A 
BRANCH   3   9
ATOM      9  S   UNL     1       6.393  -1.405  -6.459  0.00  0.00    +0.072 S 
ATOM     10  O   UNL     1       5.441  -0.418  -5.998  0.00  0.00    -0.150 OA
ATOM     11  O   UNL     1       6.326  -2.777  -5.999  0.00  0.00    -0.150 OA
BRANCH   9  12
ATOM     12  N   UNL     1       7.965  -0.879  -6.147  0.00  0.00    -0.216 N 
ATOM     13  H   UNL     1       8.645  -1.633  -6.220  0.00  0.00    +0.174 HD
BRANCH  12  19
ATOM     14  C   UNL     1       8.651   3.908  -5.107  0.00  0.00    +0.044 C 
ATOM     15  C   UNL     1       8.702   2.764  -6.077  0.00  0.00    -0.049 A 
ATOM     16  C   UNL     1       9.243   2.944  -7.355  0.00  0.00    +0.003 A 
ATOM     17  C   UNL     1       9.329   1.871  -8.244  0.00  0.00    +0.002 A 
ATOM     18  C   UNL     1       8.888   0.607  -7.858  0.00  0.00    +0.024 A 
ATOM     19  C   UNL     1       8.361   0.416  -6.581  0.00  0.00    +0.048 A 
ATOM     20  C   UNL     1       8.270   1.488  -5.691  0.00  0.00    +0.027 A 
ENDBRANCH  12  19
ENDBRANCH   9  12
ENDBRANCH   3   9
ENDBRANCH   1   7
BRANCH   2  21
ATOM     21  C   UNL     1       9.755  -1.921 -11.450  0.00  0.00    +0.068 A 
ATOM     22  C   UNL     1      10.666  -1.771 -10.401  0.00  0.00    +0.030 A 
ATOM     23  C   UNL     1      11.382  -0.581 -10.249  0.00  0.00    +0.030 A 
ATOM     24  C   UNL     1      11.179   0.462 -11.157  0.00  0.00    +0.106 A 
ATOM     25  C   UNL     1      10.216   0.353 -12.164  0.00  0.00    +0.030 A 
ATOM     26  C   UNL     1       9.506  -0.841 -12.305  0.00  0.00    +0.030 A 
BRANCH  24  27
ATOM     27  S   UNL     1      12.123   1.964 -11.002  0.00  0.00    +0.061 S 
ATOM     28  O   UNL     1      12.213   2.278  -9.591  0.00  0.00    -0.153 OA
ATOM     29  O   UNL     1      11.585   2.917 -11.948  0.00  0.00    -0.153 OA
BRANCH  27  30
ATOM     30  N   UNL     1      13.669   1.509 -11.537  0.00  0.00    -0.172 NA
ATOM     31  C   UNL     1      14.816   2.337 -11.062  0.00  0.00    +0.137 C 
ATOM     32  C   UNL     1      16.133   1.621 -11.386  0.00  0.00    +0.177 C 
ATOM     33  O   UNL     1      16.243   1.352 -12.793  0.00  0.00    -0.377 OA
ATOM     34  C   UNL     1      15.168   0.498 -13.217  0.00  0.00    +0.177 C 
ATOM     35  C   UNL     1      13.809   1.169 -12.980  0.00  0.00    +0.137 C 
ENDBRANCH  27  30
ENDBRANCH  24  27
ENDBRANCH   2  21
BRANCH   1  36
ATOM     36  O   UNL     1       7.315  -4.480 -11.205  0.00  0.00    -0.492 OA
ATOM     37  H   UNL     1       7.919  -5.058 -11.702  0.00  0.00    +0.294 HD
ENDBRANCH   1  36
TORSDOF 8
ENDMDL
MODEL 2
REMARK minimizedAffinity -4.1459465
REMARK minimizedRMSD -1
REMARK  Name = 
REMARK  9 active torsions:
REMARK  status: ('A' for Active; 'I' for Inactive)
REMARK    1  A    between atoms: C_1  and  C_2
REMARK    2  A    between atoms: C_6  and  N_8
REMARK    3  A    between atoms: N_8  and  S_9
REMARK    4  A    between atoms: S_9  and  C_12
REMARK    5  A    between atoms: C_16  and  C_18
REMARK    6  A    between atoms: C_18  and  O_19
REMARK    7  A    between atoms: N_20  and  C_21
REMARK    8  A    between atoms: C_24  and  S_27
REMARK    9  A    between atoms: S_27  and  N_30
REMARK                            x       y       z     vdW  Elec       q    Type
REMARK                         _______ _______ _______ _____ _____    ______ ____
ROOT
ATOM      1  C   UNL     1       6.872  -3.014  -6.283  0.00  0.00    +0.220 C 
ATOM      2  N   UNL     1       6.913  -3.875  -5.324  0.00  0.00    -0.213 NA
ENDROOT
BRANCH   1   7
ATOM      3  C   UNL     1       8.236  -2.693  -9.761  0.00  0.00    +0.109 A 
ATOM      4  C   UNL     1       7.375  -3.528 -10.482  0.00  0.00    +0.029 A 
ATOM      5  C   UNL     1       6.324  -4.170  -9.824  0.00  0.00    +0.003 A 
ATOM      6  C   UNL     1       6.146  -3.988  -8.452  0.00  0.00    +0.013 A 
ATOM      7  C   UNL     1       7.029  -3.171  -7.736  0.00  0.00    +0.038 A 
ATOM      8  C   UNL     1       8.078  -2.517  -8.383  0.00  0.00    +0.042 A 
BRANCH   3   9
ATOM      9  S   UNL     1       9.591  -1.899 -10.597  0.00  0.00    +0.072 S 
ATOM     10  O   UNL     1      10.743  -1.951  -9.722  0.00  0.00    -0.150 OA
ATOM     11  O   UNL     1       9.648  -2.447 -11.936  0.00  0.00    -0.150 OA
BRANCH   9  12
ATOM     12  N   UNL     1       9.064  -0.304 -10.761  0.00  0.00    -0.216 N 
ATOM     13  H   UNL     1       8.101  -0.249 -11.087  0.00  0.00    +0.174 HD
BRANCH  12  19
ATOM     14  C   UNL     1       8.804   1.616  -6.210  0.00  0.00    +0.044 C 
ATOM     15  C   UNL     1       9.383   1.616  -7.594  0.00  0.00    -0.049 A 
ATOM     16  C   UNL     1      10.429   2.486  -7.923  0.00  0.00    +0.003 A 
ATOM     17  C   UNL     1      10.997   2.460  -9.198  0.00  0.00    +0.002 A 
ATOM     18  C   UNL     1      10.536   1.551 -10.149  0.00  0.00    +0.024 A 
ATOM     19  C   UNL     1       9.505   0.671  -9.825  0.00  0.00    +0.048 A 
ATOM     20  C   UNL     1       8.931   0.699  -8.553  0.00  0.00    +0.027 A 
ENDBRANCH  12  19
ENDBRANCH   9  12
ENDBRANCH   3   9
ENDBRANCH   1   7
BRANCH   2  21
ATOM     21  C   UNL     1       7.212  -5.211  -5.627  0.00  0.00    +0.068 A 
ATOM     22  C   UNL     1       8.520  -5.564  -5.972  0.00  0.00    +0.030 A 
ATOM     23  C   UNL     1       8.850  -6.896  -6.228  0.00  0.00    +0.030 A 
ATOM     24  C   UNL     1       7.859  -7.878  -6.136  0.00  0.00    +0.106 A 
ATOM     25  C   UNL     1       6.533  -7.529  -5.867  0.00  0.00    +0.030 A 
ATOM     26  C   UNL     1       6.215  -6.193  -5.614  0.00  0.00    +0.030 A 
BRANCH  24  27
ATOM     27  S   UNL     1       8.281  -9.586  -6.411  0.00  0.00    +0.061 S 
ATOM     28  O   UNL     1       7.593 -10.017  -7.610  0.00  0.00    -0.153 OA
ATOM     29  O   UNL     1       8.109 -10.286  -5.156  0.00  0.00    -0.153 OA
BRANCH  27  30
ATOM     30  N   UNL     1       9.943  -9.527  -6.754  0.00  0.00    -0.172 NA
ATOM     31  C   UNL     1      10.382 -10.102  -8.058  0.00  0.00    +0.137 C 
ATOM     32  C   UNL     1      11.837  -9.700  -8.332  0.00  0.00    +0.177 C 
ATOM     33  O   UNL     1      12.701 -10.128  -7.266  0.00  0.00    -0.377 OA
ATOM     34  C   UNL     1      12.303  -9.511  -6.031  0.00  0.00    +0.177 C 
ATOM     35  C   UNL     1      10.871  -9.912  -5.654  0.00  0.00    +0.137 C 
ENDBRANCH  27  30
ENDBRANCH  24  27
ENDBRANCH   2  21
BRANCH   1  36
ATOM     36  O   UNL     1       6.636  -1.731  -5.970  0.00  0.00    -0.492 OA
ATOM     37  H   UNL     1       6.543  -1.684  -5.003  0.00  0.00    +0.294 HD
ENDBRANCH   1  36
TORSDOF 8
ENDMDL
MODEL 3
REMARK minimizedAffinity -3.83500886
REMARK minimizedRMSD -1
REMARK  Name = 
REMARK  9 active torsions:
REMARK  status: ('A' for Active; 'I' for Inactive)
REMARK    1  A    between atoms: C_1  and  C_2
REMARK    2  A    between atoms: C_6  and  N_8
REMARK    3  A    between atoms: N_8  and  S_9
REMARK    4  A    between atoms: S_9  and  C_12
REMARK    5  A    between atoms: C_16  and  C_18
REMARK    6  A    between atoms: C_18  and  O_19
REMARK    7  A    between atoms: N_20  and  C_21
REMARK    8  A    between atoms: C_24  and  S_27
REMARK    9  A    between atoms: S_27  and  N_30
REMARK                            x       y       z     vdW  Elec       q    Type
REMARK                         _______ _______ _______ _____ _____    ______ ____
ROOT
ATOM      1  C   UNL     1       7.504  -1.470  -6.730  0.00  0.00    +0.220 C 
ATOM      2  N   UNL     1       7.596  -0.373  -6.059  0.00  0.00    -0.213 NA
ENDROOT
BRANCH   1   7
ATOM      3  C   UNL     1       8.901  -1.895 -10.183  0.00  0.00    +0.109 A 
ATOM      4  C   UNL     1       7.772  -2.313 -10.898  0.00  0.00    +0.029 A 
ATOM      5  C   UNL     1       6.544  -2.422 -10.244  0.00  0.00    +0.003 A 
ATOM      6  C   UNL     1       6.449  -2.128  -8.883  0.00  0.00    +0.013 A 
ATOM      7  C   UNL     1       7.591  -1.736  -8.173  0.00  0.00    +0.038 A 
ATOM      8  C   UNL     1       8.823  -1.615  -8.816  0.00  0.00    +0.042 A 
BRANCH   3   9
ATOM      9  S   UNL     1      10.472  -1.785 -11.013  0.00  0.00    +0.072 S 
ATOM     10  O   UNL     1      11.511  -1.877 -10.009  0.00  0.00    -0.150 OA
ATOM     11  O   UNL     1      10.432  -2.707 -12.129  0.00  0.00    -0.150 OA
BRANCH   9  12
ATOM     12  N   UNL     1      10.450  -0.235 -11.679  0.00  0.00    -0.216 N 
ATOM     13  H   UNL     1       9.511   0.157 -11.710  0.00  0.00    +0.174 HD
BRANCH  12  19
ATOM     14  C   UNL     1      12.323   3.462  -8.980  0.00  0.00    +0.044 C 
ATOM     15  C   UNL     1      12.456   2.461 -10.089  0.00  0.00    -0.049 A 
ATOM     16  C   UNL     1      13.669   2.319 -10.773  0.00  0.00    +0.003 A 
ATOM     17  C   UNL     1      13.807   1.360 -11.778  0.00  0.00    +0.002 A 
ATOM     18  C   UNL     1      12.738   0.525 -12.097  0.00  0.00    +0.024 A 
ATOM     19  C   UNL     1      11.531   0.649 -11.411  0.00  0.00    +0.048 A 
ATOM     20  C   UNL     1      11.388   1.611 -10.409  0.00  0.00    +0.027 A 
ENDBRANCH  12  19
ENDBRANCH   9  12
ENDBRANCH   3   9
ENDBRANCH   1   7
BRANCH   2  21
ATOM     21  C   UNL     1       7.745   0.835  -6.755  0.00  0.00    +0.068 A 
ATOM     22  C   UNL     1       9.013   1.412  -6.871  0.00  0.00    +0.030 A 
ATOM     23  C   UNL     1       9.191   2.588  -7.603  0.00  0.00    +0.030 A 
ATOM     24  C   UNL     1       8.088   3.186  -8.220  0.00  0.00    +0.106 A 
ATOM     25  C   UNL     1       6.804   2.662  -8.048  0.00  0.00    +0.030 A 
ATOM     26  C   UNL     1       6.638   1.486  -7.313  0.00  0.00    +0.030 A 
BRANCH  24  27
ATOM     27  S   UNL     1       8.313   4.658  -9.196  0.00  0.00    +0.061 S 
ATOM     28  O   UNL     1       9.422   5.393  -8.627  0.00  0.00    -0.153 OA
ATOM     29  O   UNL     1       7.014   5.273  -9.365  0.00  0.00    -0.153 OA
BRANCH  27  30
ATOM     30  N   UNL     1       8.806   4.053 -10.705  0.00  0.00    -0.172 NA
ATOM     31  C   UNL     1       9.633   4.957 -11.555  0.00  0.00    +0.137 C 
ATOM     32  C   UNL     1      10.230   4.160 -12.721  0.00  0.00    +0.177 C 
ATOM     33  O   UNL     1       9.200   3.527 -13.497  0.00  0.00    -0.377 OA
ATOM     34  C   UNL     1       8.459   2.611 -12.677  0.00  0.00    +0.177 C 
ATOM     35  C   UNL     1       7.777   3.342 -11.514  0.00  0.00    +0.137 C 
ENDBRANCH  27  30
ENDBRANCH  24  27
ENDBRANCH   2  21
BRANCH   1  36
ATOM     36  O   UNL     1       7.308  -2.611  -6.052  0.00  0.00    -0.492 OA
ATOM     37  H   UNL     1       7.257  -2.379  -5.109  0.00  0.00    +0.294 HD
ENDBRANCH   1  36
TORSDOF 8
ENDMDL
MODEL 4
REMARK minimizedAffinity -3.66643381
REMARK minimizedRMSD -1
REMARK  Name = 
REMARK  9 active torsions:
REMARK  status: ('A' for Active; 'I' for Inactive)
REMARK    1  A    between atoms: C_1  and  C_2
REMARK    2  A    between atoms: C_6  and  N_8
REMARK    3  A    between atoms: N_8  and  S_9
REMARK    4  A    between atoms: S_9  and  C_12
REMARK    5  A    between atoms: C_16  and  C_18
REMARK    6  A    between atoms: C_18  and  O_19
REMARK    7  A    between atoms: N_20  and  C_21
REMARK    8  A    between atoms: C_24  and  S_27
REMARK    9  A    between atoms: S_27  and  N_30
REMARK                            x       y       z     vdW  Elec       q    Type
REMARK                         _______ _______ _______ _____ _____    ______ ____
ROOT
ATOM      1  C   UNL     1       7.537  -2.341  -8.677  0.00  0.00    +0.220 C 
ATOM      2  N   UNL     1       8.340  -2.828  -9.561  0.00  0.00    -0.213 NA
ENDROOT
BRANCH   1   7
ATOM      3  C   UNL     1       7.727   1.111  -7.228  0.00  0.00    +0.109 A 
ATOM      4  C   UNL     1       6.577   1.707  -7.759  0.00  0.00    +0.029 A 
ATOM      5  C   UNL     1       5.722   0.956  -8.568  0.00  0.00    +0.003 A 
ATOM      6  C   UNL     1       6.025  -0.376  -8.854  0.00  0.00    +0.013 A 
ATOM      7  C   UNL     1       7.192  -0.953  -8.339  0.00  0.00    +0.038 A 
ATOM      8  C   UNL     1       8.050  -0.216  -7.522  0.00  0.00    +0.042 A 
BRANCH   3   9
ATOM      9  S   UNL     1       8.830   2.079  -6.220  0.00  0.00    +0.072 S 
ATOM     10  O   UNL     1       8.154   3.314  -5.885  0.00  0.00    -0.150 OA
ATOM     11  O   UNL     1       9.341   1.205  -5.184  0.00  0.00    -0.150 OA
BRANCH   9  12
ATOM     12  N   UNL     1      10.125   2.393  -7.254  0.00  0.00    -0.216 N 
ATOM     13  H   UNL     1      10.732   1.583  -7.367  0.00  0.00    +0.174 HD
BRANCH  12  19
ATOM     14  C   UNL     1       8.210   3.020 -11.771  0.00  0.00    +0.044 C 
ATOM     15  C   UNL     1       8.983   3.547 -10.598  0.00  0.00    -0.049 A 
ATOM     16  C   UNL     1       9.395   4.884 -10.566  0.00  0.00    +0.003 A 
ATOM     17  C   UNL     1      10.079   5.387  -9.458  0.00  0.00    +0.002 A 
ATOM     18  C   UNL     1      10.342   4.561  -8.366  0.00  0.00    +0.024 A 
ATOM     19  C   UNL     1       9.922   3.232  -8.383  0.00  0.00    +0.048 A 
ATOM     20  C   UNL     1       9.242   2.725  -9.493  0.00  0.00    +0.027 A 
ENDBRANCH  12  19
ENDBRANCH   9  12
ENDBRANCH   3   9
ENDBRANCH   1   7
BRANCH   2  21
ATOM     21  C   UNL     1       9.102  -1.946 -10.341  0.00  0.00    +0.068 A 
ATOM     22  C   UNL     1      10.411  -1.643  -9.960  0.00  0.00    +0.030 A 
ATOM     23  C   UNL     1      11.204  -0.807 -10.750  0.00  0.00    +0.030 A 
ATOM     24  C   UNL     1      10.675  -0.274 -11.929  0.00  0.00    +0.106 A 
ATOM     25  C   UNL     1       9.343  -0.508 -12.282  0.00  0.00    +0.030 A 
ATOM     26  C   UNL     1       8.560  -1.345 -11.484  0.00  0.00    +0.030 A 
BRANCH  24  27
ATOM     27  S   UNL     1      11.694   0.751 -12.969  0.00  0.00    +0.061 S 
ATOM     28  O   UNL     1      10.854   1.804 -13.499  0.00  0.00    -0.153 OA
ATOM     29  O   UNL     1      12.442  -0.123 -13.847  0.00  0.00    -0.153 OA
BRANCH  27  30
ATOM     30  N   UNL     1      12.786   1.453 -11.874  0.00  0.00    -0.172 NA
ATOM     31  C   UNL     1      12.412   2.782 -11.309  0.00  0.00    +0.137 C 
ATOM     32  C   UNL     1      13.341   3.120 -10.137  0.00  0.00    +0.177 C 
ATOM     33  O   UNL     1      14.718   3.106 -10.547  0.00  0.00    -0.377 OA
ATOM     34  C   UNL     1      15.077   1.800 -11.024  0.00  0.00    +0.177 C 
ATOM     35  C   UNL     1      14.229   1.408 -12.241  0.00  0.00    +0.137 C 
ENDBRANCH  27  30
ENDBRANCH  24  27
ENDBRANCH   2  21
BRANCH   1  36
ATOM     36  O   UNL     1       6.855  -3.199  -7.903  0.00  0.00    -0.492 OA
ATOM     37  H   UNL     1       7.121  -4.096  -8.167  0.00  0.00    +0.294 HD
ENDBRANCH   1  36
TORSDOF 8
ENDMDL
MODEL 5
REMARK minimizedAffinity -3.48422647
REMARK minimizedRMSD -1
REMARK  Name = 
REMARK  9 active torsions:
REMARK  status: ('A' for Active; 'I' for Inactive)
REMARK    1  A    between atoms: C_1  and  C_2
REMARK    2  A    between atoms: C_6  and  N_8
REMARK    3  A    between atoms: N_8  and  S_9
REMARK    4  A    between atoms: S_9  and  C_12
REMARK    5  A    between atoms: C_16  and  C_18
REMARK    6  A    between atoms: C_18  and  O_19
REMARK    7  A    between atoms: N_20  and  C_21
REMARK    8  A    between atoms: C_24  and  S_27
REMARK    9  A    between atoms: S_27  and  N_30
REMARK                            x       y       z     vdW  Elec       q    Type
REMARK                         _______ _______ _______ _____ _____    ______ ____
ROOT
ATOM      1  C   UNL     1       8.208  -2.394 -11.064  0.00  0.00    +0.220 C 
ATOM      2  N   UNL     1       9.308  -2.506 -11.727  0.00  0.00    -0.213 NA
ENDROOT
BRANCH   1   7
ATOM      3  C   UNL     1       7.300  -0.035  -8.296  0.00  0.00    +0.109 A 
ATOM      4  C   UNL     1       6.572   0.944  -8.983  0.00  0.00    +0.029 A 
ATOM      5  C   UNL     1       6.354   0.806 -10.355  0.00  0.00    +0.003 A 
ATOM      6  C   UNL     1       6.873  -0.297 -11.035  0.00  0.00    +0.013 A 
ATOM      7  C   UNL     1       7.621  -1.256 -10.342  0.00  0.00    +0.038 A 
ATOM      8  C   UNL     1       7.839  -1.134  -8.969  0.00  0.00    +0.042 A 
BRANCH   3   9
ATOM      9  S   UNL     1       7.600   0.159  -6.552  0.00  0.00    +0.072 S 
ATOM     10  O   UNL     1       6.496   0.909  -5.993  0.00  0.00    -0.150 OA
ATOM     11  O   UNL     1       7.955  -1.145  -6.031  0.00  0.00    -0.150 OA
BRANCH   9  12
ATOM     12  N   UNL     1       9.009   1.086  -6.503  0.00  0.00    -0.216 N 
ATOM     13  H   UNL     1       9.588   0.951  -7.330  0.00  0.00    +0.174 HD
BRANCH  12  19
ATOM     14  C   UNL     1       9.177   3.943  -2.468  0.00  0.00    +0.044 C 
ATOM     15  C   UNL     1       9.047   3.793  -3.955  0.00  0.00    -0.049 A 
ATOM     16  C   UNL     1       8.999   4.924  -4.779  0.00  0.00    +0.003 A 
ATOM     17  C   UNL     1       8.919   4.787  -6.165  0.00  0.00    +0.002 A 
ATOM     18  C   UNL     1       8.901   3.518  -6.742  0.00  0.00    +0.024 A 
ATOM     19  C   UNL     1       8.963   2.386  -5.930  0.00  0.00    +0.048 A 
ATOM     20  C   UNL     1       9.038   2.520  -4.542  0.00  0.00    +0.027 A 
ENDBRANCH  12  19
ENDBRANCH   9  12
ENDBRANCH   3   9
ENDBRANCH   1   7
BRANCH   2  21
ATOM     21  C   UNL     1      10.187  -1.415 -11.768  0.00  0.00    +0.068 A 
ATOM     22  C   UNL     1      11.004  -1.144 -10.666  0.00  0.00    +0.030 A 
ATOM     23  C   UNL     1      11.922  -0.093 -10.706  0.00  0.00    +0.030 A 
ATOM     24  C   UNL     1      12.019   0.691 -11.860  0.00  0.00    +0.106 A 
ATOM     25  C   UNL     1      11.156   0.479 -12.939  0.00  0.00    +0.030 A 
ATOM     26  C   UNL     1      10.241  -0.575 -12.887  0.00  0.00    +0.030 A 
BRANCH  24  27
ATOM     27  S   UNL     1      13.221   2.001 -11.940  0.00  0.00    +0.061 S 
ATOM     28  O   UNL     1      13.320   2.419 -13.322  0.00  0.00    -0.153 OA
ATOM     29  O   UNL     1      14.389   1.568 -11.203  0.00  0.00    -0.153 OA
BRANCH  27  30
ATOM     30  N   UNL     1      12.486   3.258 -11.065  0.00  0.00    -0.172 NA
ATOM     31  C   UNL     1      12.314   4.560 -11.772  0.00  0.00    +0.137 C 
ATOM     32  C   UNL     1      11.383   5.466 -10.958  0.00  0.00    +0.177 C 
ATOM     33  O   UNL     1      11.889   5.668  -9.628  0.00  0.00    -0.377 OA
ATOM     34  C   UNL     1      11.983   4.410  -8.941  0.00  0.00    +0.177 C 
ATOM     35  C   UNL     1      12.948   3.461  -9.663  0.00  0.00    +0.137 C 
ENDBRANCH  27  30
ENDBRANCH  24  27
ENDBRANCH   2  21
BRANCH   1  36
ATOM     36  O   UNL     1       7.403  -3.465 -10.991  0.00  0.00    -0.492 OA
ATOM     37  H   UNL     1       7.838  -4.184 -11.481  0.00  0.00    +0.294 HD
ENDBRANCH   1  36
TORSDOF 8
ENDMDL
MODEL 6
REMARK minimizedAffinity -3.45379567
REMARK minimizedRMSD -1
REMARK  Name = 
REMARK  9 active torsions:
REMARK  status: ('A' for Active; 'I' for Inactive)
REMARK    1  A    between atoms: C_1  and  C_2
REMARK    2  A    between atoms: C_6  and  N_8
REMARK    3  A    between atoms: N_8  and  S_9
REMARK    4  A    between atoms: S_9  and  C_12
REMARK    5  A    between atoms: C_16  and  C_18
REMARK    6  A    between atoms: C_18  and  O_19
REMARK    7  A    between atoms: N_20  and  C_21
REMARK    8  A    between atoms: C_24  and  S_27
REMARK    9  A    between atoms: S_27  and  N_30
REMARK                            x       y       z     vdW  Elec       q    Type
REMARK                         _______ _______ _______ _____ _____    ______ ____
ROOT
ATOM      1  C   UNL     1       8.132   1.873  -6.571  0.00  0.00    +0.220 C 
ATOM      2  N   UNL     1       9.142   2.673  -6.627  0.00  0.00    -0.213 NA
ENDROOT
BRANCH   1   7
ATOM      3  C   UNL     1       7.072  -1.049  -8.666  0.00  0.00    +0.109 A 
ATOM      4  C   UNL     1       6.148  -0.457  -9.535  0.00  0.00    +0.029 A 
ATOM      5  C   UNL     1       5.902   0.915  -9.450  0.00  0.00    +0.003 A 
ATOM      6  C   UNL     1       6.565   1.684  -8.492  0.00  0.00    +0.013 A 
ATOM      7  C   UNL     1       7.467   1.075  -7.610  0.00  0.00    +0.038 A 
ATOM      8  C   UNL     1       7.729  -0.293  -7.691  0.00  0.00    +0.042 A 
BRANCH   3   9
ATOM      9  S   UNL     1       7.362  -2.803  -8.759  0.00  0.00    +0.072 S 
ATOM     10  O   UNL     1       8.315  -3.149  -7.727  0.00  0.00    -0.150 OA
ATOM     11  O   UNL     1       6.067  -3.448  -8.823  0.00  0.00    -0.150 OA
BRANCH   9  12
ATOM     12  N   UNL     1       8.063  -3.000 -10.281  0.00  0.00    -0.216 N 
ATOM     13  H   UNL     1       7.414  -3.401 -10.955  0.00  0.00    +0.174 HD
BRANCH  12  19
ATOM     14  C   UNL     1       9.031   0.831 -13.257  0.00  0.00    +0.044 C 
ATOM     15  C   UNL     1       9.467  -0.145 -12.204  0.00  0.00    -0.049 A 
ATOM     16  C   UNL     1      10.726  -0.024 -11.605  0.00  0.00    +0.003 A 
ATOM     17  C   UNL     1      11.119  -0.906 -10.597  0.00  0.00    +0.002 A 
ATOM     18  C   UNL     1      10.249  -1.907 -10.168  0.00  0.00    +0.024 A 
ATOM     19  C   UNL     1       8.987  -2.026 -10.748  0.00  0.00    +0.048 A 
ATOM     20  C   UNL     1       8.594  -1.148 -11.761  0.00  0.00    +0.027 A 
ENDBRANCH  12  19
ENDBRANCH   9  12
ENDBRANCH   3   9
ENDBRANCH   1   7
BRANCH   2  21
ATOM     21  C   UNL     1       9.735   2.928  -7.871  0.00  0.00    +0.068 A 
ATOM     22  C   UNL     1       9.218   3.938  -8.688  0.00  0.00    +0.030 A 
ATOM     23  C   UNL     1       9.824   4.242  -9.909  0.00  0.00    +0.030 A 
ATOM     24  C   UNL     1      10.956   3.526 -10.310  0.00  0.00    +0.106 A 
ATOM     25  C   UNL     1      11.437   2.463  -9.539  0.00  0.00    +0.030 A 
ATOM     26  C   UNL     1      10.821   2.168  -8.321  0.00  0.00    +0.030 A 
BRANCH  24  27
ATOM     27  S   UNL     1      11.766   3.939 -11.840  0.00  0.00    +0.061 S 
ATOM     28  O   UNL     1      12.387   5.236 -11.668  0.00  0.00    -0.153 OA
ATOM     29  O   UNL     1      10.826   3.695 -12.912  0.00  0.00    -0.153 OA
BRANCH  27  30
ATOM     30  N   UNL     1      13.002   2.779 -11.954  0.00  0.00    -0.172 NA
ATOM     31  C   UNL     1      14.326   3.147 -11.376  0.00  0.00    +0.137 C 
ATOM     32  C   UNL     1      15.215   1.899 -11.295  0.00  0.00    +0.177 C 
ATOM     33  O   UNL     1      15.370   1.291 -12.588  0.00  0.00    -0.377 OA
ATOM     34  C   UNL     1      14.091   0.882 -13.097  0.00  0.00    +0.177 C 
ATOM     35  C   UNL     1      13.157   2.087 -13.263  0.00  0.00    +0.137 C 
ENDBRANCH  27  30
ENDBRANCH  24  27
ENDBRANCH   2  21
BRANCH   1  36
ATOM     36  O   UNL     1       7.544   1.681  -5.381  0.00  0.00    -0.492 OA
ATOM     37  H   UNL     1       8.019   2.231  -4.734  0.00  0.00    +0.294 HD
ENDBRANCH   1  36
TORSDOF 8
ENDMDL
MODEL 7
REMARK minimizedAffinity -3.36435175
REMARK minimizedRMSD -1
REMARK  Name = 
REMARK  9 active torsions:
REMARK  status: ('A' for Active; 'I' for Inactive)
REMARK    1  A    between atoms: C_1  and  C_2
REMARK    2  A    between atoms: C_6  and  N_8
REMARK    3  A    between atoms: N_8  and  S_9
REMARK    4  A    between atoms: S_9  and  C_12
REMARK    5  A    between atoms: C_16  and  C_18
REMARK    6  A    between atoms: C_18  and  O_19
REMARK    7  A    between atoms: N_20  and  C_21
REMARK    8  A    between atoms: C_24  and  S_27
REMARK    9  A    between atoms: S_27  and  N_30
REMARK                            x       y       z     vdW  Elec       q    Type
REMARK                         _______ _______ _______ _____ _____    ______ ____
ROOT
ATOM      1  C   UNL     1       8.195  -3.404 -11.222  0.00  0.00    +0.220 C 
ATOM      2  N   UNL     1       9.353  -3.372 -11.788  0.00  0.00    -0.213 NA
ENDROOT
BRANCH   1   7
ATOM      3  C   UNL     1       6.522  -1.336  -8.580  0.00  0.00    +0.109 A 
ATOM      4  C   UNL     1       5.959  -0.305  -9.340  0.00  0.00    +0.029 A 
ATOM      5  C   UNL     1       6.103  -0.312 -10.729  0.00  0.00    +0.003 A 
ATOM      6  C   UNL     1       6.820  -1.337 -11.349  0.00  0.00    +0.013 A 
ATOM      7  C   UNL     1       7.402  -2.349 -10.576  0.00  0.00    +0.038 A 
ATOM      8  C   UNL     1       7.257  -2.358  -9.188  0.00  0.00    +0.042 A 
BRANCH   3   9
ATOM      9  S   UNL     1       6.360  -1.308  -6.808  0.00  0.00    +0.072 S 
ATOM     10  O   UNL     1       5.413  -0.268  -6.466  0.00  0.00    -0.150 OA
ATOM     11  O   UNL     1       6.154  -2.675  -6.376  0.00  0.00    -0.150 OA
BRANCH   9  12
ATOM     12  N   UNL     1       7.905  -0.876  -6.284  0.00  0.00    -0.216 N 
ATOM     13  H   UNL     1       8.543  -1.669  -6.272  0.00  0.00    +0.174 HD
BRANCH  12  19
ATOM     14  C   UNL     1       8.648   3.884  -5.161  0.00  0.00    +0.044 C 
ATOM     15  C   UNL     1       8.800   2.728  -6.105  0.00  0.00    -0.049 A 
ATOM     16  C   UNL     1       9.551   2.867  -7.278  0.00  0.00    +0.003 A 
ATOM     17  C   UNL     1       9.728   1.782  -8.138  0.00  0.00    +0.002 A 
ATOM     18  C   UNL     1       9.167   0.544  -7.825  0.00  0.00    +0.024 A 
ATOM     19  C   UNL     1       8.430   0.393  -6.652  0.00  0.00    +0.048 A 
ATOM     20  C   UNL     1       8.248   1.478  -5.792  0.00  0.00    +0.027 A 
ENDBRANCH  12  19
ENDBRANCH   9  12
ENDBRANCH   3   9
ENDBRANCH   1   7
BRANCH   2  21
ATOM     21  C   UNL     1      10.078  -2.172 -11.778  0.00  0.00    +0.068 A 
ATOM     22  C   UNL     1      10.593  -1.686 -10.573  0.00  0.00    +0.030 A 
ATOM     23  C   UNL     1      11.360  -0.520 -10.550  0.00  0.00    +0.030 A 
ATOM     24  C   UNL     1      11.611   0.161 -11.745  0.00  0.00    +0.106 A 
ATOM     25  C   UNL     1      11.039  -0.272 -12.945  0.00  0.00    +0.030 A 
ATOM     26  C   UNL     1      10.273  -1.439 -12.956  0.00  0.00    +0.030 A 
BRANCH  24  27
ATOM     27  S   UNL     1      12.630   1.621 -11.733  0.00  0.00    +0.061 S 
ATOM     28  O   UNL     1      13.663   1.439 -12.731  0.00  0.00    -0.153 OA
ATOM     29  O   UNL     1      12.963   1.910 -10.355  0.00  0.00    -0.153 OA
BRANCH  27  30
ATOM     30  N   UNL     1      11.578   2.835 -12.283  0.00  0.00    -0.172 NA
ATOM     31  C   UNL     1      12.195   3.978 -13.017  0.00  0.00    +0.137 C 
ATOM     32  C   UNL     1      11.095   4.808 -13.690  0.00  0.00    +0.177 C 
ATOM     33  O   UNL     1      10.136   5.275 -12.727  0.00  0.00    -0.377 OA
ATOM     34  C   UNL     1       9.505   4.159 -12.080  0.00  0.00    +0.177 C 
ATOM     35  C   UNL     1      10.535   3.305 -11.330  0.00  0.00    +0.137 C 
ENDBRANCH  27  30
ENDBRANCH  24  27
ENDBRANCH   2  21
BRANCH   1  36
ATOM     36  O   UNL     1       7.538  -4.573 -11.194  0.00  0.00    -0.492 OA
ATOM     37  H   UNL     1       8.106  -5.231 -11.630  0.00  0.00    +0.294 HD
ENDBRANCH   1  36
TORSDOF 8
ENDMDL
MODEL 8
REMARK minimizedAffinity -3.03961563
REMARK minimizedRMSD -1
REMARK  Name = 
REMARK  9 active torsions:
REMARK  status: ('A' for Active; 'I' for Inactive)
REMARK    1  A    between atoms: C_1  and  C_2
REMARK    2  A    between atoms: C_6  and  N_8
REMARK    3  A    between atoms: N_8  and  S_9
REMARK    4  A    between atoms: S_9  and  C_12
REMARK    5  A    between atoms: C_16  and  C_18
REMARK    6  A    between atoms: C_18  and  O_19
REMARK    7  A    between atoms: N_20  and  C_21
REMARK    8  A    between atoms: C_24  and  S_27
REMARK    9  A    between atoms: S_27  and  N_30
REMARK                            x       y       z     vdW  Elec       q    Type
REMARK                         _______ _______ _______ _____ _____    ______ ____
ROOT
ATOM      1  C   UNL     1       7.875  -3.179 -10.438  0.00  0.00    +0.220 C 
ATOM      2  N   UNL     1       8.498  -2.756 -11.485  0.00  0.00    -0.213 NA
ENDROOT
BRANCH   1   7
ATOM      3  C   UNL     1       7.883  -0.821  -7.524  0.00  0.00    +0.109 A 
ATOM      4  C   UNL     1       7.691  -1.697  -6.449  0.00  0.00    +0.029 A 
ATOM      5  C   UNL     1       7.594  -3.069  -6.685  0.00  0.00    +0.003 A 
ATOM      6  C   UNL     1       7.673  -3.559  -7.990  0.00  0.00    +0.013 A 
ATOM      7  C   UNL     1       7.838  -2.671  -9.060  0.00  0.00    +0.038 A 
ATOM      8  C   UNL     1       7.946  -1.298  -8.836  0.00  0.00    +0.042 A 
BRANCH   3   9
ATOM      9  S   UNL     1       7.979   0.930  -7.221  0.00  0.00    +0.072 S 
ATOM     10  O   UNL     1       6.633   1.460  -7.258  0.00  0.00    -0.150 OA
ATOM     11  O   UNL     1       8.822   1.118  -6.059  0.00  0.00    -0.150 OA
BRANCH   9  12
ATOM     12  N   UNL     1       8.860   1.504  -8.541  0.00  0.00    -0.216 N 
ATOM     13  H   UNL     1       8.705   0.945  -9.379  0.00  0.00    +0.174 HD
BRANCH  12  19
ATOM     14  C   UNL     1       8.178   5.570 -11.274  0.00  0.00    +0.044 C 
ATOM     15  C   UNL     1       8.702   4.904 -10.035  0.00  0.00    -0.049 A 
ATOM     16  C   UNL     1       9.249   5.668  -8.998  0.00  0.00    +0.003 A 
ATOM     17  C   UNL     1       9.699   5.054  -7.828  0.00  0.00    +0.002 A 
ATOM     18  C   UNL     1       9.592   3.672  -7.679  0.00  0.00    +0.024 A 
ATOM     19  C   UNL     1       9.035   2.905  -8.701  0.00  0.00    +0.048 A 
ATOM     20  C   UNL     1       8.588   3.516  -9.874  0.00  0.00    +0.027 A 
ENDBRANCH  12  19
ENDBRANCH   9  12
ENDBRANCH   3   9
ENDBRANCH   1   7
BRANCH   2  21
ATOM     21  C   UNL     1       9.361  -1.658 -11.362  0.00  0.00    +0.068 A 
ATOM     22  C   UNL     1       8.996  -0.428 -11.916  0.00  0.00    +0.030 A 
ATOM     23  C   UNL     1       9.817   0.691 -11.760  0.00  0.00    +0.030 A 
ATOM     24  C   UNL     1      11.012   0.570 -11.044  0.00  0.00    +0.106 A 
ATOM     25  C   UNL     1      11.425  -0.671 -10.552  0.00  0.00    +0.030 A 
ATOM     26  C   UNL     1      10.596  -1.782 -10.714  0.00  0.00    +0.030 A 
BRANCH  24  27
ATOM     27  S   UNL     1      12.042   2.002 -10.798  0.00  0.00    +0.061 S 
ATOM     28  O   UNL     1      12.204   2.181  -9.371  0.00  0.00    -0.153 OA
ATOM     29  O   UNL     1      11.521   3.063 -11.632  0.00  0.00    -0.153 OA
BRANCH  27  30
ATOM     30  N   UNL     1      13.540   1.520 -11.438  0.00  0.00    -0.172 NA
ATOM     31  C   UNL     1      14.738   2.294 -11.003  0.00  0.00    +0.137 C 
ATOM     32  C   UNL     1      16.010   1.551 -11.428  0.00  0.00    +0.177 C 
ATOM     33  O   UNL     1      16.030   1.329 -12.848  0.00  0.00    -0.377 OA
ATOM     34  C   UNL     1      14.905   0.524 -13.236  0.00  0.00    +0.177 C 
ATOM     35  C   UNL     1      13.585   1.227 -12.897  0.00  0.00    +0.137 C 
ENDBRANCH  27  30
ENDBRANCH  24  27
ENDBRANCH   2  21
BRANCH   1  36
ATOM     36  O   UNL     1       7.095  -4.263 -10.563  0.00  0.00    -0.492 OA
ATOM     37  H   UNL     1       7.158  -4.557 -11.487  0.00  0.00    +0.294 HD
ENDBRANCH   1  36
TORSDOF 8
ENDMDL
MODEL 9
REMARK minimizedAffinity -2.53988743
REMARK minimizedRMSD -1
REMARK  Name = 
REMARK  9 active torsions:
REMARK  status: ('A' for Active; 'I' for Inactive)
REMARK    1  A    between atoms: C_1  and  C_2
REMARK    2  A    between atoms: C_6  and  N_8
REMARK    3  A    between atoms: N_8  and  S_9
REMARK    4  A    between atoms: S_9  and  C_12
REMARK    5  A    between atoms: C_16  and  C_18
REMARK    6  A    between atoms: C_18  and  O_19
REMARK    7  A    between atoms: N_20  and  C_21
REMARK    8  A    between atoms: C_24  and  S_27
REMARK    9  A    between atoms: S_27  and  N_30
REMARK                            x       y       z     vdW  Elec       q    Type
REMARK                         _______ _______ _______ _____ _____    ______ ____
ROOT
ATOM      1  C   UNL     1       6.490  -1.855  -6.563  0.00  0.00    +0.220 C 
ATOM      2  N   UNL     1       7.033  -0.819  -7.105  0.00  0.00    -0.213 NA
ENDROOT
BRANCH   1   7
ATOM      3  C   UNL     1       7.025  -5.565  -6.633  0.00  0.00    +0.109 A 
ATOM      4  C   UNL     1       6.280  -5.938  -7.758  0.00  0.00    +0.029 A 
ATOM      5  C   UNL     1       5.630  -4.960  -8.512  0.00  0.00    +0.003 A 
ATOM      6  C   UNL     1       5.713  -3.619  -8.133  0.00  0.00    +0.013 A 
ATOM      7  C   UNL     1       6.439  -3.259  -6.990  0.00  0.00    +0.038 A 
ATOM      8  C   UNL     1       7.101  -4.228  -6.234  0.00  0.00    +0.042 A 
BRANCH   3   9
ATOM      9  S   UNL     1       7.829  -6.818  -5.658  0.00  0.00    +0.072 S 
ATOM     10  O   UNL     1       8.841  -6.170  -4.851  0.00  0.00    -0.150 OA
ATOM     11  O   UNL     1       6.787  -7.618  -5.046  0.00  0.00    -0.150 OA
BRANCH   9  12
ATOM     12  N   UNL     1       8.559  -7.802  -6.818  0.00  0.00    -0.216 N 
ATOM     13  H   UNL     1       8.400  -7.463  -7.766  0.00  0.00    +0.174 HD
BRANCH  12  19
ATOM     14  C   UNL     1      11.527 -10.060  -3.569  0.00  0.00    +0.044 C 
ATOM     15  C   UNL     1      11.278  -9.505  -4.940  0.00  0.00    -0.049 A 
ATOM     16  C   UNL     1      12.226  -9.676  -5.956  0.00  0.00    +0.003 A 
ATOM     17  C   UNL     1      11.979  -9.197  -7.243  0.00  0.00    +0.002 A 
ATOM     18  C   UNL     1      10.774  -8.557  -7.530  0.00  0.00    +0.024 A 
ATOM     19  C   UNL     1       9.818  -8.396  -6.529  0.00  0.00    +0.048 A 
ATOM     20  C   UNL     1      10.065  -8.869  -5.239  0.00  0.00    +0.027 A 
ENDBRANCH  12  19
ENDBRANCH   9  12
ENDBRANCH   3   9
ENDBRANCH   1   7
BRANCH   2  21
ATOM     21  C   UNL     1       7.656  -0.957  -8.354  0.00  0.00    +0.068 A 
ATOM     22  C   UNL     1       8.844  -1.684  -8.456  0.00  0.00    +0.030 A 
ATOM     23  C   UNL     1       9.453  -1.876  -9.698  0.00  0.00    +0.030 A 
ATOM     24  C   UNL     1       8.863  -1.332 -10.843  0.00  0.00    +0.106 A 
ATOM     25  C   UNL     1       7.716  -0.539 -10.745  0.00  0.00    +0.030 A 
ATOM     26  C   UNL     1       7.117  -0.353  -9.497  0.00  0.00    +0.030 A 
BRANCH  24  27
ATOM     27  S   UNL     1       9.603  -1.614 -12.437  0.00  0.00    +0.061 S 
ATOM     28  O   UNL     1       8.568  -1.446 -13.435  0.00  0.00    -0.153 OA
ATOM     29  O   UNL     1      10.371  -2.837 -12.353  0.00  0.00    -0.153 OA
BRANCH  27  30
ATOM     30  N   UNL     1      10.695  -0.321 -12.594  0.00  0.00    -0.172 NA
ATOM     31  C   UNL     1      11.605  -0.066 -11.441  0.00  0.00    +0.137 C 
ATOM     32  C   UNL     1      12.703   0.919 -11.863  0.00  0.00    +0.177 C 
ATOM     33  O   UNL     1      12.137   2.146 -12.351  0.00  0.00    -0.377 OA
ATOM     34  C   UNL     1      11.318   1.887 -13.502  0.00  0.00    +0.177 C 
ATOM     35  C   UNL     1      10.155   0.951 -13.149  0.00  0.00    +0.137 C 
ENDBRANCH  27  30
ENDBRANCH  24  27
ENDBRANCH   2  21
BRANCH   1  36
ATOM     36  O   UNL     1       5.853  -1.694  -5.393  0.00  0.00    -0.492 OA
ATOM     37  H   UNL     1       5.915  -0.752  -5.160  0.00  0.00    +0.294 HD
ENDBRANCH   1  36
TORSDOF 8
ENDMDL
MODEL 10
REMARK minimizedAffinity -2.29915309
REMARK minimizedRMSD -1
REMARK  Name = 
REMARK  9 active torsions:
REMARK  status: ('A' for Active; 'I' for Inactive)
REMARK    1  A    between atoms: C_1  and  C_2
REMARK    2  A    between atoms: C_6  and  N_8
REMARK    3  A    between atoms: N_8  and  S_9
REMARK    4  A    between atoms: S_9  and  C_12
REMARK    5  A    between atoms: C_16  and  C_18
REMARK    6  A    between atoms: C_18  and  O_19
REMARK    7  A    between atoms: N_20  and  C_21
REMARK    8  A    between atoms: C_24  and  S_27
REMARK    9  A    between atoms: S_27  and  N_30
REMARK                            x       y       z     vdW  Elec       q    Type
REMARK                         _______ _______ _______ _____ _____    ______ ____
ROOT
ATOM      1  C   UNL     1       8.449  -3.556 -11.605  0.00  0.00    +0.220 C 
ATOM      2  N   UNL     1       9.621  -3.376 -12.111  0.00  0.00    -0.213 NA
ENDROOT
BRANCH   1   7
ATOM      3  C   UNL     1       6.746  -1.677  -8.844  0.00  0.00    +0.109 A 
ATOM      4  C   UNL     1       5.884  -0.838  -9.560  0.00  0.00    +0.029 A 
ATOM      5  C   UNL     1       5.842  -0.918 -10.953  0.00  0.00    +0.003 A 
ATOM      6  C   UNL     1       6.668  -1.822 -11.624  0.00  0.00    +0.013 A 
ATOM      7  C   UNL     1       7.545  -2.637 -10.899  0.00  0.00    +0.038 A 
ATOM      8  C   UNL     1       7.590  -2.573  -9.505  0.00  0.00    +0.042 A 
BRANCH   3   9
ATOM      9  S   UNL     1       6.817  -1.552  -7.070  0.00  0.00    +0.072 S 
ATOM     10  O   UNL     1       8.207  -1.638  -6.675  0.00  0.00    -0.150 OA
ATOM     11  O   UNL     1       6.003  -0.416  -6.688  0.00  0.00    -0.150 OA
BRANCH   9  12
ATOM     12  N   UNL     1       5.985  -2.925  -6.551  0.00  0.00    -0.216 N 
ATOM     13  H   UNL     1       5.022  -2.940  -6.885  0.00  0.00    +0.174 HD
BRANCH  12  19
ATOM     14  C   UNL     1       7.164  -7.266  -8.607  0.00  0.00    +0.044 C 
ATOM     15  C   UNL     1       7.261  -6.293  -7.469  0.00  0.00    -0.049 A 
ATOM     16  C   UNL     1       8.116  -6.549  -6.390  0.00  0.00    +0.003 A 
ATOM     17  C   UNL     1       8.239  -5.626  -5.350  0.00  0.00    +0.002 A 
ATOM     18  C   UNL     1       7.519  -4.433  -5.387  0.00  0.00    +0.024 A 
ATOM     19  C   UNL     1       6.677  -4.163  -6.465  0.00  0.00    +0.048 A 
ATOM     20  C   UNL     1       6.549  -5.087  -7.504  0.00  0.00    +0.027 A 
ENDBRANCH  12  19
ENDBRANCH   9  12
ENDBRANCH   3   9
ENDBRANCH   1   7
BRANCH   2  21
ATOM     21  C   UNL     1      10.242  -2.129 -11.953  0.00  0.00    +0.068 A 
ATOM     22  C   UNL     1      10.722  -1.751 -10.696  0.00  0.00    +0.030 A 
ATOM     23  C   UNL     1      11.388  -0.535 -10.529  0.00  0.00    +0.030 A 
ATOM     24  C   UNL     1      11.572   0.305 -11.632  0.00  0.00    +0.106 A 
ATOM     25  C   UNL     1      11.030  -0.027 -12.877  0.00  0.00    +0.030 A 
ATOM     26  C   UNL     1      10.365  -1.244 -13.032  0.00  0.00    +0.030 A 
BRANCH  24  27
ATOM     27  S   UNL     1      12.464   1.833 -11.439  0.00  0.00    +0.061 S 
ATOM     28  O   UNL     1      12.637   2.406 -12.758  0.00  0.00    -0.153 OA
ATOM     29  O   UNL     1      13.599   1.572 -10.581  0.00  0.00    -0.153 OA
BRANCH  27  30
ATOM     30  N   UNL     1      11.374   2.815 -10.582  0.00  0.00    -0.172 NA
ATOM     31  C   UNL     1      10.525   3.740 -11.386  0.00  0.00    +0.137 C 
ATOM     32  C   UNL     1       9.413   4.317 -10.500  0.00  0.00    +0.177 C 
ATOM     33  O   UNL     1       9.962   4.989  -9.355  0.00  0.00    -0.377 OA
ATOM     34  C   UNL     1      10.720   4.066  -8.558  0.00  0.00    +0.177 C 
ATOM     35  C   UNL     1      11.893   3.485  -9.357  0.00  0.00    +0.137 C 
ENDBRANCH  27  30
ENDBRANCH  24  27
ENDBRANCH   2  21
BRANCH   1  36
ATOM     36  O   UNL     1       7.892  -4.771 -11.719  0.00  0.00    -0.492 OA
ATOM     37  H   UNL     1       8.529  -5.336 -12.189  0.00  0.00    +0.294 HD
ENDBRANCH   1  36
TORSDOF 8
ENDMDL
MODEL 11
REMARK minimizedAffinity -2.17107821
REMARK minimizedRMSD -1
REMARK  Name = 
REMARK  9 active torsions:
REMARK  status: ('A' for Active; 'I' for Inactive)
REMARK    1  A    between atoms: C_1  and  C_2
REMARK    2  A    between atoms: C_6  and  N_8
REMARK    3  A    between atoms: N_8  and  S_9
REMARK    4  A    between atoms: S_9  and  C_12
REMARK    5  A    between atoms: C_16  and  C_18
REMARK    6  A    between atoms: C_18  and  O_19
REMARK    7  A    between atoms: N_20  and  C_21
REMARK    8  A    between atoms: C_24  and  S_27
REMARK    9  A    between atoms: S_27  and  N_30
REMARK                            x       y       z     vdW  Elec       q    Type
REMARK                         _______ _______ _______ _____ _____    ______ ____
ROOT
ATOM      1  C   UNL     1       8.540  -2.190  -9.583  0.00  0.00    +0.220 C 
ATOM      2  N   UNL     1       9.240  -2.273 -10.663  0.00  0.00    -0.213 NA
ENDROOT
BRANCH   1   7
ATOM      3  C   UNL     1       8.750   1.168  -7.930  0.00  0.00    +0.109 A 
ATOM      4  C   UNL     1       7.621   1.149  -7.102  0.00  0.00    +0.029 A 
ATOM      5  C   UNL     1       6.812   0.012  -7.066  0.00  0.00    +0.003 A 
ATOM      6  C   UNL     1       7.121  -1.090  -7.864  0.00  0.00    +0.013 A 
ATOM      7  C   UNL     1       8.238  -1.049  -8.708  0.00  0.00    +0.038 A 
ATOM      8  C   UNL     1       9.060   0.078  -8.747  0.00  0.00    +0.042 A 
BRANCH   3   9
ATOM      9  S   UNL     1       9.764   2.630  -7.996  0.00  0.00    +0.072 S 
ATOM     10  O   UNL     1       9.332   3.516  -6.937  0.00  0.00    -0.150 OA
ATOM     11  O   UNL     1      11.141   2.190  -8.085  0.00  0.00    -0.150 OA
BRANCH   9  12
ATOM     12  N   UNL     1       9.383   3.298  -9.498  0.00  0.00    -0.216 N 
ATOM     13  H   UNL     1      10.127   3.161 -10.180  0.00  0.00    +0.174 HD
BRANCH  12  19
ATOM     14  C   UNL     1       6.004   1.207 -12.443  0.00  0.00    +0.044 C 
ATOM     15  C   UNL     1       6.378   2.219 -11.400  0.00  0.00    -0.049 A 
ATOM     16  C   UNL     1       5.394   3.018 -10.805  0.00  0.00    +0.003 A 
ATOM     17  C   UNL     1       5.733   3.932  -9.806  0.00  0.00    +0.002 A 
ATOM     18  C   UNL     1       7.056   4.044  -9.383  0.00  0.00    +0.024 A 
ATOM     19  C   UNL     1       8.040   3.243  -9.960  0.00  0.00    +0.048 A 
ATOM     20  C   UNL     1       7.704   2.331 -10.963  0.00  0.00    +0.027 A 
ENDBRANCH  12  19
ENDBRANCH   9  12
ENDBRANCH   3   9
ENDBRANCH   1   7
BRANCH   2  21
ATOM     21  C   UNL     1       9.915  -1.133 -11.121  0.00  0.00    +0.068 A 
ATOM     22  C   UNL     1       9.425  -0.439 -12.230  0.00  0.00    +0.030 A 
ATOM     23  C   UNL     1      10.053   0.728 -12.671  0.00  0.00    +0.030 A 
ATOM     24  C   UNL     1      11.182   1.198 -11.992  0.00  0.00    +0.106 A 
ATOM     25  C   UNL     1      11.727   0.472 -10.929  0.00  0.00    +0.030 A 
ATOM     26  C   UNL     1      11.090  -0.694 -10.498  0.00  0.00    +0.030 A 
BRANCH  24  27
ATOM     27  S   UNL     1      11.961   2.711 -12.515  0.00  0.00    +0.061 S 
ATOM     28  O   UNL     1      11.838   3.662 -11.430  0.00  0.00    -0.153 OA
ATOM     29  O   UNL     1      11.470   3.019 -13.841  0.00  0.00    -0.153 OA
BRANCH  27  30
ATOM     30  N   UNL     1      13.598   2.280 -12.650  0.00  0.00    -0.172 NA
ATOM     31  C   UNL     1      14.601   3.345 -12.357  0.00  0.00    +0.137 C 
ATOM     32  C   UNL     1      15.994   2.717 -12.234  0.00  0.00    +0.177 C 
ATOM     33  O   UNL     1      16.345   1.997 -13.427  0.00  0.00    -0.377 OA
ATOM     34  C   UNL     1      15.406   0.933 -13.653  0.00  0.00    +0.177 C 
ATOM     35  C   UNL     1      13.989   1.485 -13.847  0.00  0.00    +0.137 C 
ENDBRANCH  27  30
ENDBRANCH  24  27
ENDBRANCH   2  21
BRANCH   1  36
ATOM     36  O   UNL     1       7.944  -3.303  -9.130  0.00  0.00    -0.492 OA
ATOM     37  H   UNL     1       8.177  -4.022  -9.742  0.00  0.00    +0.294 HD
ENDBRANCH   1  36
TORSDOF 8
ENDMDL
MODEL 12
REMARK minimizedAffinity -2.12977958
REMARK minimizedRMSD -1
REMARK  Name = 
REMARK  9 active torsions:
REMARK  status: ('A' for Active; 'I' for Inactive)
REMARK    1  A    between atoms: C_1  and  C_2
REMARK    2  A    between atoms: C_6  and  N_8
REMARK    3  A    between atoms: N_8  and  S_9
REMARK    4  A    between atoms: S_9  and  C_12
REMARK    5  A    between atoms: C_16  and  C_18
REMARK    6  A    between atoms: C_18  and  O_19
REMARK    7  A    between atoms: N_20  and  C_21
REMARK    8  A    between atoms: C_24  and  S_27
REMARK    9  A    between atoms: S_27  and  N_30
REMARK                            x       y       z     vdW  Elec       q    Type
REMARK                         _______ _______ _______ _____ _____    ______ ____
ROOT
ATOM      1  C   UNL     1       9.573   3.391 -13.367  0.00  0.00    +0.220 C 
ATOM      2  N   UNL     1       8.318   3.140 -13.212  0.00  0.00    -0.213 NA
ENDROOT
BRANCH   1   7
ATOM      3  C   UNL     1      13.033   2.369 -12.345  0.00  0.00    +0.109 A 
ATOM      4  C   UNL     1      13.004   0.990 -12.585  0.00  0.00    +0.029 A 
ATOM      5  C   UNL     1      11.853   0.406 -13.116  0.00  0.00    +0.003 A 
ATOM      6  C   UNL     1      10.734   1.194 -13.391  0.00  0.00    +0.013 A 
ATOM      7  C   UNL     1      10.765   2.568 -13.122  0.00  0.00    +0.038 A 
ATOM      8  C   UNL     1      11.913   3.166 -12.600  0.00  0.00    +0.042 A 
BRANCH   3   9
ATOM      9  S   UNL     1      14.492   3.107 -11.642  0.00  0.00    +0.072 S 
ATOM     10  O   UNL     1      15.618   2.260 -11.970  0.00  0.00    -0.150 OA
ATOM     11  O   UNL     1      14.482   4.508 -12.009  0.00  0.00    -0.150 OA
BRANCH   9  12
ATOM     12  N   UNL     1      14.192   3.051  -9.983  0.00  0.00    -0.216 N 
ATOM     13  H   UNL     1      15.033   3.225  -9.434  0.00  0.00    +0.174 HD
BRANCH  12  19
ATOM     14  C   UNL     1       9.739   2.150  -8.027  0.00  0.00    +0.044 C 
ATOM     15  C   UNL     1      10.774   3.117  -8.523  0.00  0.00    -0.049 A 
ATOM     16  C   UNL     1      10.577   4.496  -8.388  0.00  0.00    +0.003 A 
ATOM     17  C   UNL     1      11.556   5.396  -8.811  0.00  0.00    +0.002 A 
ATOM     18  C   UNL     1      12.748   4.924  -9.360  0.00  0.00    +0.024 A 
ATOM     19  C   UNL     1      12.959   3.552  -9.484  0.00  0.00    +0.048 A 
ATOM     20  C   UNL     1      11.979   2.649  -9.066  0.00  0.00    +0.027 A 
ENDBRANCH  12  19
ENDBRANCH   9  12
ENDBRANCH   3   9
ENDBRANCH   1   7
BRANCH   2  21
ATOM     21  C   UNL     1       7.937   1.908 -12.662  0.00  0.00    +0.068 A 
ATOM     22  C   UNL     1       7.387   0.924 -13.488  0.00  0.00    +0.030 A 
ATOM     23  C   UNL     1       7.048  -0.328 -12.970  0.00  0.00    +0.030 A 
ATOM     24  C   UNL     1       7.264  -0.590 -11.614  0.00  0.00    +0.106 A 
ATOM     25  C   UNL     1       7.742   0.409 -10.762  0.00  0.00    +0.030 A 
ATOM     26  C   UNL     1       8.076   1.658 -11.291  0.00  0.00    +0.030 A 
BRANCH  24  27
ATOM     27  S   UNL     1       6.882  -2.199 -10.954  0.00  0.00    +0.061 S 
ATOM     28  O   UNL     1       5.523  -2.516 -11.338  0.00  0.00    -0.153 OA
ATOM     29  O   UNL     1       7.292  -2.211  -9.567  0.00  0.00    -0.153 OA
BRANCH  27  30
ATOM     30  N   UNL     1       7.922  -3.230 -11.816  0.00  0.00    -0.172 NA
ATOM     31  C   UNL     1       7.673  -4.695 -11.691  0.00  0.00    +0.137 C 
ATOM     32  C   UNL     1       8.491  -5.446 -12.748  0.00  0.00    +0.177 C 
ATOM     33  O   UNL     1       9.892  -5.152 -12.622  0.00  0.00    -0.377 OA
ATOM     34  C   UNL     1      10.120  -3.747 -12.812  0.00  0.00    +0.177 C 
ATOM     35  C   UNL     1       9.378  -2.923 -11.753  0.00  0.00    +0.137 C 
ENDBRANCH  27  30
ENDBRANCH  24  27
ENDBRANCH   2  21
BRANCH   1  36
ATOM     36  O   UNL     1       9.922   4.596 -13.844  0.00  0.00    -0.492 OA
ATOM     37  H   UNL     1       9.101   5.097 -13.986  0.00  0.00    +0.294 HD
ENDBRANCH   1  36
TORSDOF 8
ENDMDL
MODEL 13
REMARK minimizedAffinity -1.97480881
REMARK minimizedRMSD -1
REMARK  Name = 
REMARK  9 active torsions:
REMARK  status: ('A' for Active; 'I' for Inactive)
REMARK    1  A    between atoms: C_1  and  C_2
REMARK    2  A    between atoms: C_6  and  N_8
REMARK    3  A    between atoms: N_8  and  S_9
REMARK    4  A    between atoms: S_9  and  C_12
REMARK    5  A    between atoms: C_16  and  C_18
REMARK    6  A    between atoms: C_18  and  O_19
REMARK    7  A    between atoms: N_20  and  C_21
REMARK    8  A    between atoms: C_24  and  S_27
REMARK    9  A    between atoms: S_27  and  N_30
REMARK                            x       y       z     vdW  Elec       q    Type
REMARK                         _______ _______ _______ _____ _____    ______ ____
ROOT
ATOM      1  C   UNL     1       9.490   3.113 -13.346  0.00  0.00    +0.220 C 
ATOM      2  N   UNL     1       8.289   2.725 -13.083  0.00  0.00    -0.213 NA
ENDROOT
BRANCH   1   7
ATOM      3  C   UNL     1      13.078   2.405 -12.519  0.00  0.00    +0.109 A 
ATOM      4  C   UNL     1      13.210   1.077 -12.941  0.00  0.00    +0.029 A 
ATOM      5  C   UNL     1      12.124   0.428 -13.530  0.00  0.00    +0.003 A 
ATOM      6  C   UNL     1      10.909   1.099 -13.681  0.00  0.00    +0.013 A 
ATOM      7  C   UNL     1      10.780   2.419 -13.231  0.00  0.00    +0.038 A 
ATOM      8  C   UNL     1      11.862   3.082 -12.649  0.00  0.00    +0.042 A 
BRANCH   3   9
ATOM      9  S   UNL     1      14.457   3.220 -11.743  0.00  0.00    +0.072 S 
ATOM     10  O   UNL     1      15.659   2.503 -12.111  0.00  0.00    -0.150 OA
ATOM     11  O   UNL     1      14.323   4.637 -12.012  0.00  0.00    -0.150 OA
BRANCH   9  12
ATOM     12  N   UNL     1      14.148   3.020 -10.097  0.00  0.00    -0.216 N 
ATOM     13  H   UNL     1      14.996   3.086  -9.535  0.00  0.00    +0.174 HD
BRANCH  12  19
ATOM     14  C   UNL     1       9.789   2.218  -7.900  0.00  0.00    +0.044 C 
ATOM     15  C   UNL     1      10.809   3.161  -8.469  0.00  0.00    -0.049 A 
ATOM     16  C   UNL     1      10.634   4.545  -8.356  0.00  0.00    +0.003 A 
ATOM     17  C   UNL     1      11.601   5.423  -8.848  0.00  0.00    +0.002 A 
ATOM     18  C   UNL     1      12.758   4.925  -9.445  0.00  0.00    +0.024 A 
ATOM     19  C   UNL     1      12.947   3.548  -9.549  0.00  0.00    +0.048 A 
ATOM     20  C   UNL     1      11.979   2.667  -9.061  0.00  0.00    +0.027 A 
ENDBRANCH  12  19
ENDBRANCH   9  12
ENDBRANCH   3   9
ENDBRANCH   1   7
BRANCH   2  21
ATOM     21  C   UNL     1       8.094   1.452 -12.530  0.00  0.00    +0.068 A 
ATOM     22  C   UNL     1       8.512   1.197 -11.221  0.00  0.00    +0.030 A 
ATOM     23  C   UNL     1       8.282  -0.049 -10.634  0.00  0.00    +0.030 A 
ATOM     24  C   UNL     1       7.629  -1.044 -11.368  0.00  0.00    +0.106 A 
ATOM     25  C   UNL     1       7.274  -0.826 -12.703  0.00  0.00    +0.030 A 
ATOM     26  C   UNL     1       7.510   0.423 -13.279  0.00  0.00    +0.030 A 
BRANCH  24  27
ATOM     27  S   UNL     1       7.286  -2.619 -10.612  0.00  0.00    +0.061 S 
ATOM     28  O   UNL     1       8.487  -3.420 -10.712  0.00  0.00    -0.153 OA
ATOM     29  O   UNL     1       6.024  -3.091 -11.140  0.00  0.00    -0.153 OA
BRANCH  27  30
ATOM     30  N   UNL     1       7.055  -2.224  -8.977  0.00  0.00    -0.172 NA
ATOM     31  C   UNL     1       7.456  -3.251  -7.973  0.00  0.00    +0.137 C 
ATOM     32  C   UNL     1       7.462  -2.625  -6.573  0.00  0.00    +0.177 C 
ATOM     33  O   UNL     1       6.178  -2.068  -6.250  0.00  0.00    -0.377 OA
ATOM     34  C   UNL     1       5.839  -1.034  -7.188  0.00  0.00    +0.177 C 
ATOM     35  C   UNL     1       5.755  -1.593  -8.614  0.00  0.00    +0.137 C 
ENDBRANCH  27  30
ENDBRANCH  24  27
ENDBRANCH   2  21
BRANCH   1  36
ATOM     36  O   UNL     1       9.663   4.354 -13.825  0.00  0.00    -0.492 OA
ATOM     37  H   UNL     1       8.784   4.765 -13.879  0.00  0.00    +0.294 HD
ENDBRANCH   1  36
TORSDOF 8
ENDMDL
MODEL 14
REMARK minimizedAffinity -1.89912057
REMARK minimizedRMSD -1
REMARK  Name = 
REMARK  9 active torsions:
REMARK  status: ('A' for Active; 'I' for Inactive)
REMARK    1  A    between atoms: C_1  and  C_2
REMARK    2  A    between atoms: C_6  and  N_8
REMARK    3  A    between atoms: N_8  and  S_9
REMARK    4  A    between atoms: S_9  and  C_12
REMARK    5  A    between atoms: C_16  and  C_18
REMARK    6  A    between atoms: C_18  and  O_19
REMARK    7  A    between atoms: N_20  and  C_21
REMARK    8  A    between atoms: C_24  and  S_27
REMARK    9  A    between atoms: S_27  and  N_30
REMARK                            x       y       z     vdW  Elec       q    Type
REMARK                         _______ _______ _______ _____ _____    ______ ____
ROOT
ATOM      1  C   UNL     1       8.497  -3.739 -12.089  0.00  0.00    +0.220 C 
ATOM      2  N   UNL     1       9.659  -3.355 -12.496  0.00  0.00    -0.213 NA
ENDROOT
BRANCH   1   7
ATOM      3  C   UNL     1       6.548  -2.699  -9.060  0.00  0.00    +0.109 A 
ATOM      4  C   UNL     1       5.658  -1.764  -9.602  0.00  0.00    +0.029 A 
ATOM      5  C   UNL     1       5.680  -1.503 -10.972  0.00  0.00    +0.003 A 
ATOM      6  C   UNL     1       6.597  -2.163 -11.793  0.00  0.00    +0.013 A 
ATOM      7  C   UNL     1       7.500  -3.077 -11.236  0.00  0.00    +0.038 A 
ATOM      8  C   UNL     1       7.482  -3.354  -9.868  0.00  0.00    +0.042 A 
BRANCH   3   9
ATOM      9  S   UNL     1       6.535  -3.009  -7.307  0.00  0.00    +0.072 S 
ATOM     10  O   UNL     1       7.889  -2.850  -6.820  0.00  0.00    -0.150 OA
ATOM     11  O   UNL     1       5.445  -2.239  -6.745  0.00  0.00    -0.150 OA
BRANCH   9  12
ATOM     12  N   UNL     1       6.072  -4.628  -7.204  0.00  0.00    -0.216 N 
ATOM     13  H   UNL     1       5.425  -4.892  -7.945  0.00  0.00    +0.174 HD
BRANCH  12  19
ATOM     14  C   UNL     1       8.758  -8.655  -8.222  0.00  0.00    +0.044 C 
ATOM     15  C   UNL     1       8.346  -7.568  -7.273  0.00  0.00    -0.049 A 
ATOM     16  C   UNL     1       8.976  -7.437  -6.030  0.00  0.00    +0.003 A 
ATOM     17  C   UNL     1       8.623  -6.403  -5.163  0.00  0.00    +0.002 A 
ATOM     18  C   UNL     1       7.647  -5.481  -5.537  0.00  0.00    +0.024 A 
ATOM     19  C   UNL     1       7.024  -5.595  -6.779  0.00  0.00    +0.048 A 
ATOM     20  C   UNL     1       7.372  -6.632  -7.647  0.00  0.00    +0.027 A 
ENDBRANCH  12  19
ENDBRANCH   9  12
ENDBRANCH   3   9
ENDBRANCH   1   7
BRANCH   2  21
ATOM     21  C   UNL     1      10.162  -2.128 -12.044  0.00  0.00    +0.068 A 
ATOM     22  C   UNL     1      10.669  -2.025 -10.745  0.00  0.00    +0.030 A 
ATOM     23  C   UNL     1      11.222  -0.825 -10.293  0.00  0.00    +0.030 A 
ATOM     24  C   UNL     1      11.263   0.278 -11.151  0.00  0.00    +0.106 A 
ATOM     25  C   UNL     1      10.691   0.211 -12.425  0.00  0.00    +0.030 A 
ATOM     26  C   UNL     1      10.141  -0.994 -12.866  0.00  0.00    +0.030 A 
BRANCH  24  27
ATOM     27  S   UNL     1      12.011   1.797 -10.601  0.00  0.00    +0.061 S 
ATOM     28  O   UNL     1      13.446   1.611 -10.628  0.00  0.00    -0.153 OA
ATOM     29  O   UNL     1      11.331   2.205  -9.391  0.00  0.00    -0.153 OA
BRANCH  27  30
ATOM     30  N   UNL     1      11.603   2.899 -11.828  0.00  0.00    -0.172 NA
ATOM     31  C   UNL     1      12.731   3.496 -12.599  0.00  0.00    +0.137 C 
ATOM     32  C   UNL     1      12.182   4.216 -13.836  0.00  0.00    +0.177 C 
ATOM     33  O   UNL     1      11.225   5.223 -13.466  0.00  0.00    -0.377 OA
ATOM     34  C   UNL     1      10.114   4.619 -12.784  0.00  0.00    +0.177 C 
ATOM     35  C   UNL     1      10.573   3.923 -11.497  0.00  0.00    +0.137 C 
ENDBRANCH  27  30
ENDBRANCH  24  27
ENDBRANCH   2  21
BRANCH   1  36
ATOM     36  O   UNL     1       8.053  -4.940 -12.489  0.00  0.00    -0.492 OA
ATOM     37  H   UNL     1       8.747  -5.332 -13.046  0.00  0.00    +0.294 HD
ENDBRANCH   1  36
TORSDOF 8
ENDMDL
