REMARK  Name = 
REMARK  9 active torsions:
REMARK  status: ('A' for Active; 'I' for Inactive)
REMARK    1  A    between atoms: C_1  and  C_2
REMARK    2  A    between atoms: C_6  and  N_8
REMARK    3  A    between atoms: N_8  and  S_9
REMARK    4  A    between atoms: S_9  and  C_12
REMARK    5  A    between atoms: C_16  and  C_18
REMARK    6  A    between atoms: C_18  and  O_19
REMARK    7  A    between atoms: N_20  and  C_21
REMARK    8  A    between atoms: C_24  and  S_27
REMARK    9  A    between atoms: S_27  and  N_30
REMARK                            x       y       z     vdW  Elec       q    Type
REMARK                         _______ _______ _______ _____ _____    ______ ____
ROOT
ATOM      1  C   UNL     1       0.655   0.019  -2.241  0.00  0.00    +0.220 C 
ATOM      2  N   UNL     1       0.683  -0.089  -0.953  0.00  0.00    -0.213 NA
ENDROOT
BRANCH   1   7
ATOM      3  C   UNL     1       3.130   2.761  -2.988  0.00  0.00    +0.109 A 
ATOM      4  C   UNL     1       3.073   2.845  -4.382  0.00  0.00    +0.029 A 
ATOM      5  C   UNL     1       2.215   2.001  -5.085  0.00  0.00    +0.003 A 
ATOM      6  C   UNL     1       1.423   1.077  -4.397  0.00  0.00    +0.013 A 
ATOM      7  C   UNL     1       1.490   0.982  -2.999  0.00  0.00    +0.038 A 
ATOM      8  C   UNL     1       2.361   1.821  -2.294  0.00  0.00    +0.042 A 
BRANCH   3   9
ATOM      9  S   UNL     1       4.222   3.839  -2.086  0.00  0.00    +0.072 S 
ATOM     10  O   UNL     1       5.246   4.286  -3.008  0.00  0.00    -0.150 OA
ATOM     11  O   UNL     1       4.571   3.188  -0.842  0.00  0.00    -0.150 OA
BRANCH   9  12
ATOM     12  N   UNL     1       3.256   5.190  -1.774  0.00  0.00    -0.216 N 
ATOM     13  H   UNL     1       3.318   5.882  -2.518  0.00  0.00    +0.174 HD
BRANCH  12  19
ATOM     14  C   UNL     1      -1.681   5.271  -2.058  0.00  0.00    +0.044 C 
ATOM     15  C   UNL     1      -0.425   5.047  -1.269  0.00  0.00    -0.049 A 
ATOM     16  C   UNL     1      -0.488   4.560   0.042  0.00  0.00    +0.003 A 
ATOM     17  C   UNL     1       0.681   4.316   0.763  0.00  0.00    +0.002 A 
ATOM     18  C   UNL     1       1.925   4.545   0.176  0.00  0.00    +0.024 A 
ATOM     19  C   UNL     1       1.999   5.013  -1.134  0.00  0.00    +0.048 A 
ATOM     20  C   UNL     1       0.829   5.262  -1.856  0.00  0.00    +0.027 A 
ENDBRANCH  12  19
ENDBRANCH   9  12
ENDBRANCH   3   9
ENDBRANCH   1   7
BRANCH   2  21
ATOM     21  C   UNL     1      -0.135  -1.008  -0.293  0.00  0.00    +0.068 A 
ATOM     22  C   UNL     1       0.313  -2.312  -0.061  0.00  0.00    +0.030 A 
ATOM     23  C   UNL     1      -0.499  -3.229   0.609  0.00  0.00    +0.030 A 
ATOM     24  C   UNL     1      -1.760  -2.826   1.060  0.00  0.00    +0.106 A 
ATOM     25  C   UNL     1      -2.216  -1.524   0.843  0.00  0.00    +0.030 A 
ATOM     26  C   UNL     1      -1.395  -0.616   0.171  0.00  0.00    +0.030 A 
BRANCH  24  27
ATOM     27  S   UNL     1      -2.779  -3.998   1.921  0.00  0.00    +0.061 S 
ATOM     28  O   UNL     1      -2.902  -5.160   1.068  0.00  0.00    -0.153 OA
ATOM     29  O   UNL     1      -3.944  -3.307   2.433  0.00  0.00    -0.153 OA
BRANCH  27  30
ATOM     30  N   UNL     1      -1.815  -4.418   3.261  0.00  0.00    -0.172 NA
ATOM     31  C   UNL     1      -1.560  -3.321   4.254  0.00  0.00    +0.137 C 
ATOM     32  C   UNL     1      -2.379  -3.531   5.530  0.00  0.00    +0.177 C 
ATOM     33  O   UNL     1      -2.055  -4.754   6.209  0.00  0.00    -0.377 OA
ATOM     34  C   UNL     1      -1.641  -5.803   5.322  0.00  0.00    +0.177 C 
ATOM     35  C   UNL     1      -2.258  -5.688   3.926  0.00  0.00    +0.137 C 
ENDBRANCH  27  30
ENDBRANCH  24  27
ENDBRANCH   2  21
BRANCH   1  36
ATOM     36  O   UNL     1      -0.133  -0.716  -3.050  0.00  0.00    -0.492 OA
ATOM     37  H   UNL     1      -0.669  -1.342  -2.539  0.00  0.00    +0.294 HD
ENDBRANCH   1  36
TORSDOF 8
