REMARK  Name = 
REMARK  8 active torsions:
REMARK  status: ('A' for Active; 'I' for Inactive)
REMARK    1  A    between atoms: C_1  and  C_2
REMARK    2  A    between atoms: C_6  and  N_8
REMARK    3  A    between atoms: N_8  and  S_9
REMARK    4  A    between atoms: S_9  and  C_12
REMARK    5  A    between atoms: C_16  and  C_18
REMARK    6  A    between atoms: N_20  and  C_21
REMARK    7  A    between atoms: C_24  and  S_27
REMARK    8  A    between atoms: S_27  and  N_30
REMARK                            x       y       z     vdW  Elec       q    Type
REMARK                         _______ _______ _______ _____ _____    ______ ____
ROOT
ATOM      1  C   UNL     1       1.090  -2.018  -1.717  0.00  0.00    +0.248 C 
ATOM      2  O   UNL     1       1.888  -2.386  -0.864  0.00  0.00    -0.270 OA
ATOM      3  N   UNL     1       0.803  -0.715  -2.082  0.00  0.00    -0.282 N 
ATOM      4  H   UNL     1       0.187  -0.581  -2.874  0.00  0.00    +0.155 HD
ENDROOT
BRANCH   1   9
ATOM      5  C   UNL     1      -1.629  -3.910  -3.573  0.00  0.00    +0.109 A 
ATOM      6  C   UNL     1      -0.972  -5.106  -3.878  0.00  0.00    +0.029 A 
ATOM      7  C   UNL     1       0.345  -5.290  -3.459  0.00  0.00    +0.003 A 
ATOM      8  C   UNL     1       1.001  -4.277  -2.754  0.00  0.00    +0.013 A 
ATOM      9  C   UNL     1       0.352  -3.065  -2.481  0.00  0.00    +0.039 A 
ATOM     10  C   UNL     1      -0.972  -2.880  -2.890  0.00  0.00    +0.042 A 
BRANCH   5  11
ATOM     11  S   UNL     1      -3.318  -3.675  -4.086  0.00  0.00    +0.072 S 
ATOM     12  O   UNL     1      -3.531  -2.251  -4.231  0.00  0.00    -0.150 OA
ATOM     13  O   UNL     1      -3.568  -4.587  -5.182  0.00  0.00    -0.150 OA
BRANCH  11  14
ATOM     14  N   UNL     1      -4.204  -4.258  -2.771  0.00  0.00    -0.216 N 
ATOM     15  H   UNL     1      -4.368  -5.261  -2.834  0.00  0.00    +0.174 HD
BRANCH  14  21
ATOM     16  C   UNL     1      -2.143  -4.728   1.704  0.00  0.00    +0.044 C 
ATOM     17  C   UNL     1      -2.933  -3.929   0.709  0.00  0.00    -0.049 A 
ATOM     18  C   UNL     1      -3.293  -2.605   0.989  0.00  0.00    +0.003 A 
ATOM     19  C   UNL     1      -3.989  -1.846   0.047  0.00  0.00    +0.002 A 
ATOM     20  C   UNL     1      -4.317  -2.399  -1.190  0.00  0.00    +0.024 A 
ATOM     21  C   UNL     1      -3.953  -3.712  -1.482  0.00  0.00    +0.048 A 
ATOM     22  C   UNL     1      -3.261  -4.476  -0.539  0.00  0.00    +0.027 A 
ENDBRANCH  14  21
ENDBRANCH  11  14
ENDBRANCH   5  11
ENDBRANCH   1   9
BRANCH   3  23
ATOM     23  C   UNL     1       1.313   0.467  -1.506  0.00  0.00    +0.034 A 
ATOM     24  C   UNL     1       2.195   0.491  -0.422  0.00  0.00    +0.025 A 
ATOM     25  C   UNL     1       2.656   1.706   0.096  0.00  0.00    +0.030 A 
ATOM     26  C   UNL     1       2.222   2.905  -0.469  0.00  0.00    +0.106 A 
ATOM     27  C   UNL     1       1.347   2.901  -1.557  0.00  0.00    +0.030 A 
ATOM     28  C   UNL     1       0.894   1.682  -2.069  0.00  0.00    +0.025 A 
BRANCH  26  29
ATOM     29  S   UNL     1       2.796   4.457   0.171  0.00  0.00    +0.061 S 
ATOM     30  O   UNL     1       3.787   4.203   1.194  0.00  0.00    -0.153 OA
ATOM     31  O   UNL     1       3.091   5.309  -0.961  0.00  0.00    -0.153 OA
BRANCH  29  32
ATOM     32  N   UNL     1       1.408   5.076   0.949  0.00  0.00    -0.172 NA
ATOM     33  C   UNL     1       0.861   4.221   2.056  0.00  0.00    +0.137 C 
ATOM     34  C   UNL     1      -0.045   5.048   2.974  0.00  0.00    +0.177 C 
ATOM     35  O   UNL     1       0.650   6.110   3.640  0.00  0.00    -0.377 OA
ATOM     36  C   UNL     1       1.755   6.626   2.882  0.00  0.00    +0.177 C 
ATOM     37  C   UNL     1       1.547   6.513   1.369  0.00  0.00    +0.137 C 
ENDBRANCH  29  32
ENDBRANCH  26  29
ENDBRANCH   3  23
TORSDOF 7
