REMARK  Name = 
REMARK  8 active torsions:
REMARK  status: ('A' for Active; 'I' for Inactive)
REMARK    1  A    between atoms: C_1  and  C_2
REMARK    2  A    between atoms: C_6  and  N_8
REMARK    3  A    between atoms: N_8  and  S_9
REMARK    4  A    between atoms: S_9  and  C_12
REMARK    5  A    between atoms: C_16  and  C_18
REMARK    6  A    between atoms: N_20  and  C_21
REMARK    7  A    between atoms: C_24  and  S_27
REMARK    8  A    between atoms: S_27  and  N_30
REMARK                            x       y       z     vdW  Elec       q    Type
REMARK                         _______ _______ _______ _____ _____    ______ ____
ROOT
ATOM      1  C   UNL     1       0.184  -0.544   0.409  0.00  0.00    +0.248 C 
ATOM      2  O   UNL     1       0.411   0.513   0.986  0.00  0.00    -0.270 OA
ATOM      3  N   UNL     1      -0.169  -0.715  -0.916  0.00  0.00    -0.282 N 
ATOM      4  H   UNL     1      -0.193  -1.665  -1.266  0.00  0.00    +0.155 HD
ENDROOT
BRANCH   1   9
ATOM      5  C   UNL     1       1.491  -3.035   2.908  0.00  0.00    +0.109 A 
ATOM      6  C   UNL     1       0.630  -4.122   2.728  0.00  0.00    +0.029 A 
ATOM      7  C   UNL     1      -0.393  -4.039   1.784  0.00  0.00    +0.003 A 
ATOM      8  C   UNL     1      -0.548  -2.881   1.017  0.00  0.00    +0.013 A 
ATOM      9  C   UNL     1       0.335  -1.804   1.185  0.00  0.00    +0.039 A 
ATOM     10  C   UNL     1       1.358  -1.879   2.135  0.00  0.00    +0.042 A 
BRANCH   5  11
ATOM     11  S   UNL     1       2.782  -3.111   4.129  0.00  0.00    +0.072 S 
ATOM     12  O   UNL     1       2.838  -4.463   4.640  0.00  0.00    -0.150 OA
ATOM     13  O   UNL     1       3.949  -2.479   3.550  0.00  0.00    -0.150 OA
BRANCH  11  14
ATOM     14  N   UNL     1       2.224  -2.074   5.339  0.00  0.00    -0.216 N 
ATOM     15  H   UNL     1       2.544  -1.117   5.200  0.00  0.00    +0.174 HD
BRANCH  14  21
ATOM     16  C   UNL     1      -2.405  -0.401   5.828  0.00  0.00    +0.044 C 
ATOM     17  C   UNL     1      -1.371  -1.463   6.065  0.00  0.00    -0.049 A 
ATOM     18  C   UNL     1      -1.694  -2.620   6.783  0.00  0.00    +0.003 A 
ATOM     19  C   UNL     1      -0.724  -3.595   7.026  0.00  0.00    +0.002 A 
ATOM     20  C   UNL     1       0.578  -3.417   6.560  0.00  0.00    +0.024 A 
ATOM     21  C   UNL     1       0.911  -2.261   5.857  0.00  0.00    +0.048 A 
ATOM     22  C   UNL     1      -0.056  -1.283   5.616  0.00  0.00    +0.027 A 
ENDBRANCH  14  21
ENDBRANCH  11  14
ENDBRANCH   5  11
ENDBRANCH   1   9
BRANCH   3  23
ATOM     23  C   UNL     1      -0.443   0.294  -1.862  0.00  0.00    +0.034 A 
ATOM     24  C   UNL     1      -0.495   1.656  -1.554  0.00  0.00    +0.025 A 
ATOM     25  C   UNL     1      -0.779   2.600  -2.547  0.00  0.00    +0.030 A 
ATOM     26  C   UNL     1      -0.994   2.181  -3.861  0.00  0.00    +0.106 A 
ATOM     27  C   UNL     1      -0.977   0.822  -4.178  0.00  0.00    +0.030 A 
ATOM     28  C   UNL     1      -0.696  -0.115  -3.179  0.00  0.00    +0.025 A 
BRANCH  26  29
ATOM     29  S   UNL     1      -1.379   3.381  -5.122  0.00  0.00    +0.061 S 
ATOM     30  O   UNL     1      -1.948   4.535  -4.461  0.00  0.00    -0.153 OA
ATOM     31  O   UNL     1      -2.095   2.687  -6.171  0.00  0.00    -0.153 OA
BRANCH  29  32
ATOM     32  N   UNL     1       0.138   3.816  -5.728  0.00  0.00    -0.172 NA
ATOM     33  C   UNL     1       0.843   2.832  -6.593  0.00  0.00    +0.137 C 
ATOM     34  C   UNL     1       2.246   3.346  -6.928  0.00  0.00    +0.177 C 
ATOM     35  O   UNL     1       3.075   3.501  -5.767  0.00  0.00    -0.377 OA
ATOM     36  C   UNL     1       2.345   3.851  -4.582  0.00  0.00    +0.177 C 
ATOM     37  C   UNL     1       1.048   4.618  -4.864  0.00  0.00    +0.137 C 
ENDBRANCH  29  32
ENDBRANCH  26  29
ENDBRANCH   3  23
TORSDOF 7
